# vtk DataFile Version 2.0
Wound Healing Simulation
ASCII
DATASET UNSTRUCTURED_GRID
POINTS 3012 float
69.9759 18.75 4
67.2507 60.3285 4
69.976 18.75 2
73.0099 25.446 4
71.1327 20.9142 4
68.6801 16.6661 4
67.8277 19.9246 3.9877
67.2507 60.3286 2
71.1327 54.0858 4
68.6801 58.3339 4
65.6939 62.2254 4
65.3141 59.0041 3.98887
74.6784 42.3946 4
73.7221 47.2057 4
69.9759 18.75 0
73.0099 25.446 2
68.6801 16.6661 2
71.1327 20.9142 2
67.8282 19.9258 2
74.6792 32.6053 4
73.7222 27.7943 4
72.1454 23.1494 4
70.6158 26.2226 3.98626
68.8879 21.9581 3.98736
67.2507 14.6715 4
66.6391 17.9692 3.98829
65.8034 21.0213 3.98265
67.2507 60.3285 0
71.1327 54.0858 2
68.6801 58.3339 2
65.694 62.2255 2
65.3145 59.0038 2
72.1454 51.8506 4
69.9759 56.25 4
68.8388 53.1129 3.98713
64.0165 64.0165 4
66.6128 57.136 3.98853
63.8874 60.769 3.99017
63.5056 57.779 3.98429
60.3285 67.2507 4
74.6792 42.3947 2
73.7222 47.2057 2
74.9194 39.9526 4
74.2788 44.8158 4
72.1692 42.0853 3.98479
73.0099 49.554 4
71.2509 46.597 3.98621
73.0099 25.446 0
71.1327 20.9142 0
68.6801 16.6661 0
67.8277 19.9246 0.0123028
74.6792 32.6053 2
73.7222 27.7943 2
67.2508 14.6715 2
72.1455 23.1494 2
70.6159 26.2233 2
66.6397 17.9697 2
68.8883 21.9595 2
65.8035 21.0206 2
74.9197 35.0474 4
74.2794 30.1841 4
72.1858 32.9434 3.98522
71.2796 28.4325 3.98605
69.8176 24.0608 3.98688
68.351 26.9519 3.9785
66.7684 22.9313 3.98141
65.694 12.7746 4
65.3255 16.1 3.98932
64.7198 19.1884 3.98383
63.8967 22.0282 3.97971
71.1327 54.0858 0
65.6939 62.2254 0
68.6801 58.3339 0
65.3141 59.0041 0.0111327
72.1455 51.8506 2
69.9759 56.25 2
68.839 53.1116 2
64.0165 64.0165 2
66.6133 57.1353 2
63.8877 60.7688 2
63.5056 57.7797 2
62.2254 65.694 4
58.8947 65.4161 3.99265
69.7711 50.9877 3.98668
67.7861 55.1685 3.98797
66.6558 52.2112 3.98114
62.3374 62.43 3.99144
64.6671 56.0375 3.98432
62.2066 59.4125 3.98469
61.8313 56.6923 3.98189
58.3339 68.6801 4
60.3285 67.2508 2
73.7221 47.2057 0
74.6784 42.3946 0
74.9197 39.9526 2
74.2794 44.8159 2
72.1691 42.0857 2
73.0099 49.554 2
71.2509 46.597 2
75 37.5 4
72.406 39.8021 3.98379
71.7838 44.3523 3.9857
69.8071 41.7893 3.97734
70.577 48.8121 3.98649
68.9167 46.0145 3.97829
74.6792 32.6053 0
73.7222 27.7943 0
67.2507 14.6715 0
72.1454 23.1494 0
70.6158 26.2226 0.0137386
68.8879 21.9581 0.0126448
66.6391 17.9692 0.0117057
65.8034 21.0213 0.017345
74.9197 35.0474 2
74.2794 30.1841 2
72.1858 32.9434 2
71.2796 28.4328 2
65.694 12.7745 2
65.3259 16.1 2
69.8178 24.0621 2
68.351 26.9519 2
64.7201 19.1875 2
66.7684 22.931 2
63.8969 22.0274 2
72.4139 35.2241 3.9841
71.8052 30.6768 3.98593
69.8432 33.2687 3.97775
68.9701 29.0387 3.97822
67.6164 24.9116 3.97985
66.2005 27.6335 3.97549
64.0165 10.9835 4
64.7655 23.8254 3.9784
63.8915 14.3238 3.99042
63.5183 17.4385 3.98505
62.9164 20.3105 3.98076
62.105 22.9333 3.97814
60.6847 11.0952 3.9919
57.6132 11.4398 3.987
72.1454 51.8506 0
69.9759 56.25 0
68.8388 53.1129 0.0128731
64.0165 64.0165 0
63.8874 60.769 0.00983494
66.6128 57.136 0.0114656
63.5056 57.779 0.0157067
62.2255 65.694 2
58.8949 65.4162 2
69.7712 50.9866 2
67.7866 55.1674 2
66.6556 52.2116 2
62.3376 62.4299 2
64.6672 56.0383 2
62.2066 59.413 2
61.8313 56.693 2
60.6695 63.9792 3.99211
57.0252 66.7368 3.99317
57.5587 63.6973 3.98746
67.513 50.1774 3.97967
65.7087 54.1773 3.98306
64.5471 51.3901 3.9777
60.7755 60.9455 3.98556
62.8302 55.0776 3.98209
60.6645 58.1711 3.98193
60.3385 55.7996 3.98089
56.25 69.9759 4
58.3339 68.6801 2
60.3285 67.2507 0
58.9217 9.65349 3.99244
62.2254 9.30607 4
73.0099 49.554 0
74.2788 44.8158 0
71.2509 46.597 0.013788
72.1692 42.0853 0.0152131
74.9194 39.9526 0
75 37.5 2
72.406 39.8024 2
71.7838 44.3526 2
69.8072 41.7894 2
70.5771 48.8116 2
68.9166 46.0145 2
72.4892 37.512 3.98341
70.043 39.6571 3.97584
69.4343 43.9071 3.97811
67.6021 41.4981 3.9742
68.2709 48.1071 3.97881
66.7164 45.4412 3.97546
74.9197 35.0474 0
74.2794 30.1841 0
72.1858 32.9434 0.0147776
71.2796 28.4325 0.0139467
65.694 12.7746 0
65.3255 16.1 0.0106779
69.8176 24.0608 0.0131178
68.351 26.9519 0.0215
66.7684 22.9313 0.0185945
64.7198 19.1884 0.0161657
63.8967 22.0282 0.02029
72.414 35.2241 2
71.8052 30.6768 2
69.8433 33.2688 2
68.9701 29.0388 2
64.0165 10.9835 2
63.8917 14.3238 2
63.5185 17.4377 2
67.6163 24.9114 2
66.2005 27.6332 2
62.9168 20.3096 2
64.7655 23.8248 2
62.1053 22.9327 2
60.685 11.0952 2
57.6132 11.4392 2
70.06 35.3922 3.97654
69.4709 31.1499 3.97831
67.6604 33.5904 3.97462
66.778 29.6219 3.97514
65.5314 25.6968 3.97672
64.1536 28.2524 3.97455
62.3426 12.6521 3.99126
62.8679 24.6301 3.97699
62.2024 15.7761 3.98543
61.8217 18.6728 3.98217
61.2295 21.3291 3.97877
60.4396 23.7152 3.97765
59.2475 12.7711 3.98574
55.875 10.2265 3.98843
56.4066 13.1023 3.98387
69.7711 50.9877 0.0133174
62.2254 65.694 0
58.8947 65.4161 0.00734778
67.7861 55.1685 0.0120265
66.6558 52.2112 0.0188551
62.3374 62.43 0.00856342
62.2066 59.4125 0.0153129
64.6671 56.0375 0.0156846
61.8313 56.6923 0.0181081
60.6698 63.9792 2
57.0254 66.7369 2
57.5586 63.6979 2
67.5129 50.1776 2
65.7088 54.178 2
64.547 51.3909 2
60.7755 60.9462 2
62.8303 55.0785 2
60.6644 58.1718 2
60.3385 55.8002 2
55.0706 67.9337 3.99345
59.2208 62.3728 3.98618
55.8049 64.9146 3.98883
56.3285 62.0984 3.98439
65.34 49.4113 3.97635
63.7165 53.2998 3.9801
62.4536 50.6595 3.97598
59.3373 59.5679 3.98341
61.0896 54.3216 3.98115
59.297 57.0267 3.98
59.254 55.1982 3.98141
48.103 68.5817 3.99024
50.9483 69.9331 3.99386
54.0858 71.1327 4
56.25 69.976 2
58.3339 68.6801 0
57.0588 8.33336 3.99295
60.3285 7.74928 4
58.922 9.65342 2
62.2255 9.30602 2
70.577 48.8121 0.0135097
71.7838 44.3523 0.0142957
68.9167 46.0145 0.0217085
69.8071 41.7893 0.022664
72.406 39.8021 0.0162111
75 37.5 0
72.4892 37.5122 2
70.0432 39.6572 2
69.4343 43.9072 2
67.6023 41.4983 2
68.2708 48.1072 2
66.7164 45.4415 2
70.1308 37.5215 3.97547
67.8373 39.5125 3.9727
67.2297 43.4709 3.97513
65.5621 41.2117 3.97327
66.0761 47.4199 3.97592
64.6606 44.8516 3.97456
72.4139 35.2241 0.015902
71.8052 30.6768 0.0140706
69.8432 33.2687 0.0222481
68.9701 29.0387 0.021779
64.0165 10.9835 0
63.8915 14.3238 0.00957852
63.5183 17.4385 0.0149467
67.6164 24.9116 0.0201538
66.2005 27.6335 0.0245077
64.7655 23.8254 0.0216034
62.9164 20.3105 0.0192431
62.105 22.9333 0.021855
60.6847 11.0952 0.00809585
57.6132 11.4398 0.012996
70.0603 35.3923 2
69.471 31.15 2
67.6606 33.5902 2
66.7781 29.6216 2
62.3429 12.6523 2
62.2024 15.7755 2
61.822 18.672 2
65.5314 25.6964 2
64.1536 28.2521 2
61.23 21.3284 2
62.868 24.6296 2
60.4399 23.7147 2
59.2475 12.7705 2
56.4065 13.1015 2
55.875 10.2258 2
67.874 35.5474 3.97359
67.2712 31.6215 3.97536
65.7042 33.9258 3.9734
64.6701 30.1894 3.974
63.547 26.4095 3.9753
62.2657 28.7728 3.97513
60.7772 14.2155 3.98532
61.0575 25.3284 3.9764
60.6181 17.1158 3.98336
60.2325 19.8021 3.98033
59.6746 22.2438 3.9774
58.9933 24.3062 3.97797
54.0379 9.1301 3.98906
57.9122 14.3209 3.98363
54.7876 12.0014 3.98505
55.3142 14.6327 3.98257
67.513 50.1774 0.0203319
57.0252 66.7368 0.00682625
60.6695 63.9792 0.00789483
57.5587 63.6973 0.0125418
65.7087 54.1773 0.0169435
64.5471 51.3901 0.0222964
60.7755 60.9455 0.014444
60.6645 58.1711 0.0180698
62.8302 55.0776 0.0179136
60.3385 55.7996 0.0191083
55.0708 67.9337 2
59.2207 62.3736 2
55.8049 64.9151 2
56.3284 62.0989 2
65.3399 49.4119 2
63.7166 53.3007 2
62.4535 50.6602 2
59.3373 59.5687 2
61.0897 54.3224 2
59.297 57.0273 2
59.254 55.1988 2
53.0425 69.0014 3.99368
53.9671 66.0166 3.98944
57.8832 60.8796 3.98386
54.6846 63.2144 3.98553
55.2136 60.6265 3.98282
63.2044 48.6665 3.97487
61.7548 52.5854 3.97863
60.2871 50.0294 3.97501
58.0235 58.2741 3.98139
59.341 53.9618 3.98031
58.1362 55.8283 3.97814
50.1096 67.8598 3.99003
47.4636 66.5861 3.98796
46.0568 69.1613 3.99046
48.1031 68.5821 2
48.8025 70.7243 3.99403
50.9486 69.9332 2
51.8506 72.1454 4
54.0858 71.1327 2
56.25 69.9759 0
55.103 7.13796 3.99318
58.3339 6.31992 4
57.0591 8.33323 2
60.3286 7.74926 2
58.9217 9.65349 0.00755791
62.2254 9.30607 0
68.2709 48.1071 0.0211856
69.4343 43.9071 0.0218867
66.7164 45.4412 0.0245449
67.6021 41.4981 0.0257986
70.043 39.6571 0.0241553
72.4892 37.512 0.0165937
70.1308 37.5216 2
67.8375 39.5126 2
67.2297 43.4712 2
65.5623 41.212 2
66.076 47.4203 2
64.6607 44.852 2
67.9331 37.522 3.9721
65.7913 39.3712 3.97176
65.1837 43.028 3.9742
63.7631 40.9326 3.97286
63.9748 46.7208 3.97485
62.8171 44.2216 3.9752
70.06 35.3922 0.0234594
69.4709 31.1499 0.0216945
67.6604 33.5904 0.0253801
66.778 29.6219 0.0248585
62.3426 12.6521 0.00874066
62.2024 15.7761 0.0145706
61.8217 18.6728 0.017828
65.5314 25.6968 0.0232832
64.1536 28.2524 0.0254548
62.8679 24.6301 0.0230056
61.2295 21.3291 0.0212312
60.4396 23.7152 0.0223499
59.2475 12.7711 0.0142612
56.4066 13.1023 0.016125
55.875 10.2265 0.01157
67.8744 35.5473 2
67.2713 31.6213 2
65.7044 33.9255 2
64.6702 30.1891 2
60.7772 14.2149 2
60.6182 17.115 2
60.233 19.8012 2
63.5471 26.4091 2
62.2658 28.7725 2
59.6751 22.2432 2
61.0577 25.328 2
58.9936 24.3057 2
57.9122 14.3203 2
55.3141 14.6319 2
54.0379 9.1295 2
54.7876 12.0006 2
65.881 35.6663 3.97255
65.1938 32.1516 3.97416
64.2916 34.2483 3.9734
62.6034 30.6314 3.97373
61.6612 27.0658 3.97453
60.8598 29.1334 3.97641
59.3137 15.6577 3.98371
59.3447 25.7848 3.97826
59.1303 18.3413 3.98227
58.7513 20.8379 3.97839
58.2991 23.0762 3.97613
57.9835 24.6499 3.97847
52.1125 8.14883 3.98942
53.0584 11.008 3.98608
56.679 15.7291 3.98283
53.8106 13.6675 3.98336
54.3784 15.9835 3.98233
55.0706 67.9337 0.00654841
65.34 49.4113 0.0236515
55.8049 64.9146 0.0111742
59.2208 62.3728 0.0138204
56.3285 62.0984 0.015613
63.7165 53.2998 0.0199004
62.4536 50.6595 0.0240233
59.3373 59.5679 0.0165875
59.297 57.0267 0.0200004
61.0896 54.3216 0.0188498
59.254 55.1982 0.01859
53.0427 69.0015 2
53.967 66.017 2
57.8831 60.8803 2
54.6844 63.215 2
55.2134 60.6272 2
63.2044 48.6671 2
61.7549 52.5862 2
60.2871 50.0301 2
58.0235 58.2749 2
59.3411 53.9625 2
58.1362 55.8288 2
52.0706 67.0029 3.98981
52.9536 64.2244 3.98657
56.6518 59.5004 3.98265
53.6823 61.6314 3.98379
54.263 59.333 3.98158
[...]
POINT_DATA 3012
SCALARS rho_c_phif_kappa float 4
LOOKUP_TABLE default
1000 0 1.00056 0.244544
1000 0 1.00051 0.244732
1000 0 1.00056 0.244379
1000 0 1.00056 0.244584
1000 0 1.00056 0.244545
1000 0 1.00056 0.244511
1004.26 4.92027e-09 1.00059 0.244434
1000 0 1.00051 0.244713
1000 0 1.00051 0.244579
1000 0 1.00051 0.244608
1000 0 1.00056 0.2443
1004.26 4.86645e-09 1.00062 0.244256
1000 0 1.00056 0.244633
1000 0 1.00056 0.24448
1000 0 1.00056 0.244222
1000 0 1.00056 0.244478
1000 0 1.00056 0.244348
1000 0 1.00056 0.2444
1004.26 4.9251e-09 1.00059 0.244514
1000 0 1.00051 0.244776
1000 0 1.00056 0.244641
1000 0 1.00056 0.24455
1004.24 4.94757e-09 1.00059 0.244543
1004.26 4.93243e-09 1.00059 0.244493
1000 0 1.00056 0.244449
1004.28 4.90763e-09 1.00059 0.244363
1003.81 4.46333e-09 1.00062 0.244553
1000 0 1.00051 0.244693
1000 0 1.00054 0.244475
1000 0 1.00054 0.244464
1000 0 1.00051 0.244725
1004.26 4.8705e-09 1.00062 0.244265
1000 0 1.00056 0.244352
1000 0 1.00056 0.244314
1004.26 4.93525e-09 1.0006 0.244533
1000 0 1.00051 0.244695
1004.26 4.88894e-09 1.0006 0.244453
1004.28 4.85231e-09 1.00062 0.24435
1003.82 4.48787e-09 1.00062 0.244547
1000 0 1.00051 0.24481
1000 0 1.00051 0.244796
1000 0 1.00054 0.244608
1000 0 1.00051 0.244834
1000 0 1.00056 0.244574
1004.22 4.95333e-09 1.00062 0.244615
1000 0 1.00051 0.244618
1004.25 4.96042e-09 1.0006 0.244619
1000 0 1.00056 0.24438
1000 0 1.00056 0.244258
1000 0 1.00056 0.244186
1004.26 4.92027e-09 1.00059 0.244589
1000 0 1.00054 0.244785
1000 0 1.00056 0.24456
1000 0 1.00056 0.244312
1000 0 1.00056 0.244426
1004.24 4.95198e-09 1.00059 0.244586
1004.27 4.91197e-09 1.00059 0.244441
1004.26 4.93726e-09 1.00059 0.24457
1003.81 4.4618e-09 1.00062 0.244539
1000 0 1.00051 0.244813
1000 0 1.00056 0.244702
1004.22 4.9474e-09 1.0006 0.244621
1004.24 4.94999e-09 1.00059 0.244568
1004.25 4.94228e-09 1.00059 0.244523
1003.8 4.43681e-09 1.00062 0.244511
1003.81 4.454e-09 1.00062 0.244567
1000 0 1.00056 0.244417
1004.29 4.89519e-09 1.00059 0.244335
1003.81 4.47282e-09 1.00062 0.244507
1003.8 4.43129e-09 1.00061 0.244231
1000 0 1.00051 0.244679
1000 0 1.00051 0.244712
1000 0 1.00051 0.244691
1004.26 4.86645e-09 1.00062 0.244275
1000 0 1.00051 0.244646
1000 0 1.00051 0.244697
1004.26 4.94006e-09 1.00062 0.244424
1000 0 1.00053 0.244495
1004.25 4.8934e-09 1.00062 0.244298
1004.27 4.8557e-09 1.00061 0.244397
1003.82 4.48638e-09 1.00062 0.244551
1000 0 1.00051 0.244781
1004.34 4.85011e-09 1.00062 0.24437
1004.26 4.94943e-09 1.00062 0.244566
1004.26 4.91421e-09 1.00062 0.244468
1003.8 4.45103e-09 1.00062 0.244512
1004.3 4.84426e-09 1.0006 0.244466
1003.82 4.47893e-09 1.00062 0.244559
1003.81 4.49254e-09 1.00062 0.244533
1003.8 4.43924e-09 1.00062 0.244437
1000 0 1.00051 0.244839
1000 0 1.00051 0.244809
1000 0 1.00051 0.244687
1000 0 1.00051 0.244782
1000 0 1.00051 0.244825
1000 0 1.00054 0.244672
1004.21 4.95809e-09 1.00061 0.244595
1000 0 1.00054 0.244538
1004.24 4.96447e-09 1.00061 0.244574
1000 0 1.00051 0.244841
1004.22 4.94619e-09 1.00062 0.244562
1004.24 4.95834e-09 1.0006 0.24462
1003.8 4.43003e-09 1.00061 0.244307
1004.25 4.95868e-09 1.0006 0.244547
1003.8 4.43112e-09 1.00061 0.244482
1000 0 1.00056 0.24463
1000 0 1.00056 0.244487
1000 0 1.00056 0.244167
1000 0 1.00056 0.244304
1004.24 4.94757e-09 1.00059 0.244625
1004.26 4.93243e-09 1.00059 0.244643
1004.28 4.90763e-09 1.00059 0.244517
1003.81 4.46333e-09 1.00062 0.244525
1000 0 1.00051 0.244811
1000 0 1.00056 0.244639
1004.21 4.95235e-09 1.0006 0.244591
1004.23 4.9543e-09 1.00059 0.2446
1000 0 1.00053 0.244476
1004.28 4.89864e-09 1.0006 0.244413
1004.25 4.94688e-09 1.00059 0.244585
1003.8 4.43534e-09 1.00062 0.244481
1003.81 4.47138e-09 1.00062 0.244498
1003.81 4.45238e-09 1.00062 0.244561
1003.8 4.43168e-09 1.00061 0.244229
1004.21 4.94416e-09 1.00062 0.244615
1004.23 4.94998e-09 1.00059 0.244584
1003.8 4.43192e-09 1.00062 0.24435
1003.8 4.43141e-09 1.00062 0.244443
1003.8 4.44493e-09 1.00062 0.244542
1003.78 4.41488e-09 1.00061 0.244113
1000 0 1.00051 0.244728
1003.79 4.42639e-09 1.00061 0.244197
1004.3 4.88305e-09 1.00062 0.244263
1003.81 4.47971e-09 1.00062 0.244512
1003.8 4.43734e-09 1.00061 0.244254
1003.81 4.44478e-09 1.00061 0.243883
1004.34 4.87157e-09 1.00062 0.244381
1003.78 4.48107e-09 1.00062 0.244773
1000 0 1.00051 0.244655
1000 0 1.00051 0.244697
1004.26 4.93525e-09 1.00062 0.244427
1000 0 1.00051 0.244743
1004.28 4.85231e-09 1.00062 0.244285
1004.26 4.88894e-09 1.00062 0.244305
1003.82 4.48787e-09 1.00062 0.244554
1000 0 1.00051 0.244778
1004.34 4.85234e-09 1.00062 0.244363
1004.26 4.95391e-09 1.00061 0.24457
1004.26 4.91891e-09 1.00061 0.244477
1003.8 4.44954e-09 1.00062 0.244535
1004.29 4.84711e-09 1.00062 0.244314
1003.82 4.47737e-09 1.00062 0.244572
1003.81 4.49134e-09 1.00062 0.244537
1003.8 4.43946e-09 1.00062 0.244432
1004.32 4.84498e-09 1.00062 0.24435
1004.37 4.85644e-09 1.00062 0.244359
1003.79 4.48685e-09 1.00062 0.244723
1003.8 4.44328e-09 1.00061 0.244535
1003.81 4.46502e-09 1.00062 0.244517
1003.79 4.42808e-09 1.00061 0.24416
1003.81 4.4924e-09 1.00062 0.244624
1003.8 4.43731e-09 1.00061 0.244374
1003.81 4.4434e-09 1.00062 0.244402
1003.82 4.45783e-09 1.00062 0.244132
1000 0 1.00051 0.244865
1000 0 1.00051 0.244837
1000 0 1.00051 0.244807
1004.36 4.87282e-09 1.00062 0.244364
1000 0 1.00051 0.244766
1000 0 1.00051 0.244657
1000 0 1.00051 0.244731
1004.25 4.96042e-09 1.00062 0.244549
1004.22 4.95333e-09 1.00062 0.244586
1000 0 1.00051 0.244829
1000 0 1.00051 0.244842
1004.2 4.95157e-09 1.00062 0.244578
1004.22 4.96261e-09 1.00061 0.24458
1003.8 4.42855e-09 1.00061 0.244311
1004.25 4.96273e-09 1.00062 0.244503
1003.8 4.42974e-09 1.00061 0.244476
1004.21 4.94134e-09 1.00062 0.244595
1003.8 4.42913e-09 1.00061 0.244238
1003.8 4.43062e-09 1.00061 0.2444
1003.77 4.40898e-09 1.00061 0.244027
1003.8 4.43315e-09 1.00061 0.24453
1003.78 4.41503e-09 1.00061 0.244129
1000 0 1.00051 0.244824
1000 0 1.00056 0.244584
1004.22 4.9474e-09 1.00061 0.244641
1004.24 4.94999e-09 1.00059 0.244628
1000 0 1.00051 0.244644
1004.29 4.89519e-09 1.0006 0.244493
1004.25 4.94228e-09 1.00059 0.244644
1003.8 4.43681e-09 1.00062 0.244452
1003.81 4.454e-09 1.00062 0.244557
1003.81 4.47282e-09 1.00062 0.244488
1003.8 4.43129e-09 1.00061 0.244227
1004.2 4.94977e-09 1.00062 0.244597
1004.22 4.95439e-09 1.00059 0.244618
1003.8 4.4304e-09 1.00062 0.244346
1003.8 4.42998e-09 1.00062 0.244444
1000 0 1.00051 0.244733
1004.29 4.88597e-09 1.00061 0.244369
1003.81 4.47834e-09 1.00062 0.244516
1003.8 4.44336e-09 1.00062 0.244525
1003.78 4.41522e-09 1.00061 0.244083
1003.8 4.43771e-09 1.00061 0.244242
1003.79 4.42674e-09 1.00061 0.244206
1003.81 4.44488e-09 1.00061 0.243888
1004.33 4.87397e-09 1.00062 0.244367
1003.78 4.47993e-09 1.00062 0.244746
1003.8 4.43088e-09 1.00061 0.24427
1003.8 4.43117e-09 1.00062 0.24441
1003.77 4.40713e-09 1.00061 0.244067
1003.78 4.41038e-09 1.00061 0.244049
1003.79 4.4215e-09 1.00061 0.244142
1003.79 4.42592e-09 1.00061 0.243795
1004.32 4.87443e-09 1.00062 0.244337
1003.8 4.43901e-09 1.00061 0.243841
1003.81 4.48272e-09 1.00062 0.244603
1003.81 4.44269e-09 1.00062 0.244353
1003.81 4.45135e-09 1.00061 0.243915
1003.8 4.43642e-09 1.00061 0.243508
1003.79 4.48239e-09 1.00062 0.244736
1003.77 4.47834e-09 1.00062 0.244804
1003.81 4.44259e-09 1.00062 0.244661
1004.26 4.94943e-09 1.00062 0.24449
1000 0 1.00051 0.244776
1004.34 4.85011e-09 1.00062 0.244353
1004.26 4.91421e-09 1.00062 0.244357
1003.8 4.45103e-09 1.00062 0.244555
1004.3 4.84426e-09 1.00062 0.244335
1003.81 4.49254e-09 1.00062 0.244543
1003.82 4.47893e-09 1.00062 0.244584
1003.8 4.43924e-09 1.00062 0.244428
1004.31 4.84739e-09 1.00062 0.244359
1004.36 4.8585e-09 1.00062 0.244343
1003.79 4.48563e-09 1.00062 0.244742
1003.8 4.44183e-09 1.00061 0.244543
1003.81 4.4635e-09 1.00062 0.244541
1003.79 4.42847e-09 1.00061 0.24416
1003.81 4.49121e-09 1.00062 0.244627
1003.8 4.43745e-09 1.00061 0.244386
1003.81 4.4438e-09 1.00062 0.244404
1003.82 4.45784e-09 1.00062 0.244107
1004.39 4.86401e-09 1.00062 0.244339
1003.8 4.48934e-09 1.00062 0.244706
1003.78 4.48405e-09 1.00062 0.244745
1003.81 4.44354e-09 1.00062 0.244693
1003.79 4.40867e-09 1.00061 0.244164
1003.8 4.43867e-09 1.00061 0.244229
1003.8 4.43132e-09 1.00061 0.243767
1003.81 4.44547e-09 1.00062 0.244523
1003.82 4.45682e-09 1.00061 0.24399
1003.82 4.46185e-09 1.00062 0.244037
1003.81 4.45361e-09 1.00061 0.243829
1003.74 4.47398e-09 1.00061 0.244697
1004.44 4.87976e-09 1.00062 0.244304
1000 0 1.00051 0.244889
1000 0 1.00051 0.244864
1000 0 1.00051 0.244835
1004.38 4.87915e-09 1.00062 0.244328
1000 0 1.00051 0.244802
1004.35 4.87495e-09 1.00062 0.244375
1000 0 1.00051 0.244767
1004.25 4.95868e-09 1.00062 0.244528
1004.24 4.95834e-09 1.00062 0.244568
1003.8 4.43112e-09 1.00061 0.244471
1003.8 4.43003e-09 1.00061 0.244315
1004.22 4.94619e-09 1.00062 0.244593
1000 0 1.00051 0.244847
1004.2 4.94732e-09 1.00062 0.244594
1003.8 4.42753e-09 1.00061 0.24424
1003.8 4.42912e-09 1.00061 0.2444
1003.77 4.40935e-09 1.00061 0.244023
1003.8 4.43181e-09 1.00061 0.244527
1003.78 4.41538e-09 1.00061 0.244128
1003.8 4.43157e-09 1.00061 0.244229
1003.77 4.40446e-09 1.00061 0.243966
1003.78 4.41379e-09 1.00061 0.244086
1003.78 4.41463e-09 1.00061 0.243801
1003.78 4.42053e-09 1.00061 0.244158
1003.79 4.41856e-09 1.00061 0.243811
1004.21 4.94416e-09 1.00062 0.244576
1004.23 4.94998e-09 1.00059 0.244649
1003.8 4.43192e-09 1.00061 0.244339
1003.8 4.43141e-09 1.00062 0.244444
1000 0 1.00051 0.24474
1004.3 4.88305e-09 1.0006 0.244417
1003.81 4.47971e-09 1.00062 0.24452
1003.8 4.44493e-09 1.00062 0.244509
1003.78 4.41488e-09 1.00061 0.244053
1003.79 4.42639e-09 1.00061 0.244213
1003.8 4.43734e-09 1.00061 0.244231
1003.81 4.44478e-09 1.00061 0.243894
1004.34 4.87157e-09 1.00062 0.244358
1003.78 4.48107e-09 1.00062 0.244723
1003.8 4.42919e-09 1.00061 0.244269
1003.8 4.42978e-09 1.00062 0.244406
1003.77 4.40748e-09 1.00061 0.244054
1003.78 4.41073e-09 1.00061 0.244064
1004.31 4.87709e-09 1.00062 0.244318
1003.8 4.48144e-09 1.00062 0.2446
1003.81 4.44296e-09 1.00062 0.244366
1003.79 4.4219e-09 1.00061 0.244147
1003.79 4.42606e-09 1.00061 0.243768
1003.81 4.45156e-09 1.00061 0.243894
1003.8 4.4391e-09 1.00061 0.243842
1003.8 4.43661e-09 1.00061 0.243496
1003.79 4.4812e-09 1.00062 0.244727
1003.81 4.44295e-09 1.00062 0.244673
1003.77 4.47719e-09 1.00062 0.244773
1003.77 4.40223e-09 1.00061 0.244011
1003.77 4.40703e-09 1.00061 0.244074
1003.78 4.41591e-09 1.00061 0.243859
1003.78 4.41842e-09 1.00061 0.243775
1003.8 4.43034e-09 1.00061 0.24376
1003.78 4.41753e-09 1.00061 0.243513
1003.8 4.48332e-09 1.00062 0.244675
1003.79 4.42985e-09 1.00061 0.243458
1003.81 4.44475e-09 1.00062 0.244544
1003.82 4.45821e-09 1.00061 0.243991
1003.81 4.44443e-09 1.00061 0.243473
1003.8 4.43259e-09 1.00061 0.243135
1003.76 4.47452e-09 1.00062 0.24482
1003.81 4.44255e-09 1.00062 0.244685
1003.81 4.44367e-09 1.00062 0.244695
1003.82 4.46308e-09 1.00062 0.244431
1003.8 4.44328e-09 1.00061 0.244551
1004.37 4.85644e-09 1.00062 0.244326
1004.32 4.84498e-09 1.00062 0.244369
1003.79 4.48685e-09 1.00062 0.244765
1003.81 4.46502e-09 1.00062 0.244565
1003.79 4.42808e-09 1.00061 0.244159
1003.81 4.4924e-09 1.00062 0.244629
1003.81 4.4434e-09 1.00062 0.244405
1003.8 4.43731e-09 1.00061 0.244399
1003.82 4.45783e-09 1.00062 0.244083
1004.39 4.86591e-09 1.00062 0.244324
1003.8 4.48812e-09 1.00062 0.244714
1003.78 4.48296e-09 1.00062 0.244767
1003.81 4.44374e-09 1.00062 0.244689
1003.79 4.40899e-09 1.00061 0.244159
1003.8 4.43903e-09 1.00061 0.244232
1003.8 4.43166e-09 1.00061 0.243764
1003.81 4.44576e-09 1.00062 0.244521
1003.82 4.45683e-09 1.00061 0.244007
1003.82 4.46216e-09 1.00062 0.244032
1003.81 4.4537e-09 1.00061 0.243861
1004.41 4.8711e-09 1.00062 0.244322
1003.77 4.48081e-09 1.00062 0.244766
1003.81 4.44391e-09 1.00062 0.244663
1003.81 4.44429e-09 1.00062 0.244747
1003.82 4.46334e-09 1.00062 0.244416
1003.8 4.46688e-09 1.00061 0.243811
1003.81 4.42208e-09 1.00061 0.243798
1003.8 4.47412e-09 1.00061 0.243316
1003.82 4.46269e-09 1.00062 0.244149
1003.81 4.43564e-09 1.00061 0.24355
1003.82 4.4419e-09 1.00061 0.243685
1003.75 4.47651e-09 1.00062 0.244732
1003.82 4.44453e-09 1.00062 0.244945
1003.73 4.47055e-09 1.00061 0.244668
1003.74 4.47308e-09 1.00061 0.244702
1004.46 4.88833e-09 1.0006 0.244449
1004.43 4.88147e-09 1.00061 0.244403
1000 0 1.00056 0.244594
1000 0 1.00051 0.244888
1000 0 1.00051 0.244863
1004.41 4.88817e-09 1.00062 0.244307
1000 0 1.00051 0.244833
1004.38 4.8809e-09 1.00062 0.24435
1000 0 1.00051 0.244803
1004.36 4.87282e-09 1.00062 0.244383
1000 0 1.00051 0.244768
1003.8 4.43315e-09 1.00061 0.244523
1003.8 4.43062e-09 1.00061 0.2444
1003.78 4.41503e-09 1.00061 0.244126
1003.77 4.40898e-09 1.00061 0.24402
1003.8 4.42913e-09 1.00061 0.244242
1004.21 4.94134e-09 1.00062 0.244585
1003.8 4.42983e-09 1.00061 0.244228
1003.77 4.40484e-09 1.00061 0.243964
1003.78 4.41406e-09 1.00061 0.244083
1003.79 4.41469e-09 1.00061 0.243788
1003.78 4.42085e-09 1.00061 0.244155
1003.79 4.41845e-09 1.00061 0.243809
1003.77 4.39322e-09 1.00061 0.243955
1003.78 4.409e-09 1.00061 0.243791
1003.79 4.40835e-09 1.00061 0.243796
1003.78 4.4351e-09 1.00061 0.243619
1003.79 4.41364e-09 1.00061 0.243823
1003.78 4.43265e-09 1.00061 0.24348
1003.8 4.43088e-09 1.00061 0.244269
1003.8 4.43117e-09 1.00062 0.2444
1003.77 4.40713e-09 1.00061 0.244042
1003.78 4.41038e-09 1.00061 0.24408
1004.32 4.87443e-09 1.00062 0.244302
1003.81 4.48272e-09 1.00062 0.244597
1003.81 4.44269e-09 1.00062 0.244382
1003.79 4.4215e-09 1.00061 0.244154
1003.79 4.42592e-09 1.00061 0.243741
1003.8 4.43901e-09 1.00061 0.243843
1003.81 4.45135e-09 1.00061 0.243873
1003.8 4.43642e-09 1.00061 0.243482
1003.79 4.48239e-09 1.00062 0.244717
1003.81 4.44259e-09 1.00062 0.244684
1003.77 4.47834e-09 1.00062 0.244746
1003.77 4.40261e-09 1.00061 0.244002
1003.77 4.40723e-09 1.00061 0.244066
1003.78 4.4159e-09 1.00061 0.243846
1003.78 4.41831e-09 1.00061 0.24378
1003.8 4.48207e-09 1.00062 0.244679
1003.81 4.44489e-09 1.00062 0.244546
1003.82 4.45843e-09 1.00062 0.244004
1003.8 4.43035e-09 1.00061 0.243783
1003.78 4.41717e-09 1.00061 0.243476
1003.81 4.44476e-09 1.00061 0.243445
1003.79 4.42972e-09 1.00061 0.243471
1003.8 4.43241e-09 1.00061 0.24312
1003.81 4.44275e-09 1.00062 0.244691
1003.82 4.46327e-09 1.00062 0.244435
1003.76 4.47343e-09 1.00062 0.244801
1003.81 4.44376e-09 1.00062 0.244705
1003.78 4.42881e-09 1.00061 0.243826
1003.78 4.42164e-09 1.00061 0.243812
1003.78 4.42874e-09 1.00061 0.243725
1003.78 4.40879e-09 1.00061 0.243558
1003.79 4.43205e-09 1.00061 0.243402
1003.78 4.40739e-09 1.00061 0.243183
1003.81 4.44402e-09 1.00062 0.244648
1003.8 4.43831e-09 1.00061 0.243051
1003.82 4.46113e-09 1.00062 0.244234
1003.81 4.44592e-09 1.00061 0.243564
1003.8 4.44958e-09 1.00061 0.243041
1003.8 4.44995e-09 1.00061 0.242789
1003.75 4.47065e-09 1.00062 0.244798
1003.82 4.4443e-09 1.00062 0.244806
1003.82 4.46195e-09 1.00062 0.244502
1003.82 4.46457e-09 1.00062 0.244366
1003.82 4.45778e-09 1.00062 0.244322
1004.39 4.86401e-09 1.00062 0.244309
1003.79 4.40867e-09 1.00061 0.244153
1003.78 4.48405e-09 1.00062 0.244792
1003.8 4.48934e-09 1.00062 0.24472
1003.81 4.44354e-09 1.00062 0.244685
1003.8 4.43867e-09 1.00061 0.244236
1003.8 4.43132e-09 1.00061 0.243762
1003.81 4.44547e-09 1.00062 0.244517
1003.82 4.46185e-09 1.00062 0.244024
1003.82 4.45682e-09 1.00061 0.244024
1003.81 4.45361e-09 1.00061 0.243892
1004.41 4.87293e-09 1.00062 0.24431
1003.77 4.47976e-09 1.00062 0.244782
1003.81 4.44414e-09 1.00062 0.244658
1003.81 4.44446e-09 1.00062 0.244747
1003.82 4.46326e-09 1.00062 0.244414
1003.8 4.46695e-09 1.00061 0.243806
1003.81 4.42185e-09 1.00061 0.243793
1003.8 4.47362e-09 1.00061 0.243294
1003.82 4.46286e-09 1.00062 0.244153
1003.81 4.43541e-09 1.00061 0.243599
1003.82 4.4423e-09 1.00062 0.243691
1003.76 4.47904e-09 1.00062 0.244758
1003.82 4.44432e-09 1.00062 0.244827
1003.82 4.4624e-09 1.00062 0.244366
1003.82 4.46355e-09 1.00062 0.244442
1003.82 4.45952e-09 1.00062 0.244214
1003.78 4.40013e-09 1.00061 0.243491
1003.81 4.55754e-09 1.00061 0.243228
1003.79 4.32494e-09 1.00061 0.242681
1003.82 4.4452e-09 1.00062 0.243758
1003.81 4.55134e-09 1.00061 0.24332
1003.75 4.47564e-09 1.00062 0.244738
1003.82 4.44418e-09 1.00062 0.244912
1003.82 4.44469e-09 1.00062 0.244948
1003.82 4.46509e-09 1.00062 0.244707
1003.82 4.44508e-09 1.00062 0.244946
1003.72 4.46601e-09 1.00061 0.244651
1003.73 4.46974e-09 1.00061 0.244672
1004.48 4.89917e-09 1.0006 0.244436
1003.74 4.47398e-09 1.00061 0.244707
1004.45 4.88984e-09 1.0006 0.244479
1000 0 1.00056 0.244608
1004.44 4.87976e-09 1.0006 0.24447
1000 0 1.00054 0.244696
1000 0 1.00051 0.244887
1004.43 4.8977e-09 1.00062 0.244291
1004.4 4.88984e-09 1.00062 0.244324
1000 0 1.00051 0.244861
1000 0 1.00051 0.244834
1004.38 4.87915e-09 1.00062 0.244368
1000 0 1.00051 0.244802
1003.78 4.42053e-09 1.00061 0.244152
1003.78 4.41379e-09 1.00061 0.244081
1003.79 4.41856e-09 1.00061 0.243807
1003.78 4.41463e-09 1.00061 0.243777
1003.77 4.40446e-09 1.00061 0.243963
1003.8 4.43157e-09 1.00061 0.244225
1003.77 4.3938e-09 1.00061 0.243954
1003.78 4.40938e-09 1.00061 0.243789
1003.79 4.40852e-09 1.00061 0.243796
1003.78 4.43595e-09 1.00061 0.243602
1003.79 4.41398e-09 1.00061 0.243819
1003.78 4.43345e-09 1.00061 0.243463
1003.78 4.4328e-09 1.00061 0.243792
1003.78 4.49722e-09 1.00061 0.243697
1003.78 4.45202e-09 1.00061 0.243505
1003.78 4.32751e-09 1.00061 0.243512
1003.79 4.46421e-09 1.00061 0.243471
1003.78 4.33747e-09 1.00061 0.243195
1003.77 4.40223e-09 1.00061 0.243993
1003.77 4.40703e-09 1.00061 0.244058
1003.78 4.41591e-09 1.00061 0.243833
1003.78 4.41842e-09 1.00061 0.243784
1003.8 4.48332e-09 1.00062 0.244681
1003.81 4.44475e-09 1.00062 0.244547
1003.82 4.45821e-09 1.00062 0.244015
1003.8 4.43034e-09 1.00061 0.243805
1003.78 4.41753e-09 1.00061 0.243439
1003.79 4.42985e-09 1.00061 0.243483
1003.81 4.44443e-09 1.00061 0.24342
1003.8 4.43259e-09 1.00061 0.2431
1003.81 4.44255e-09 1.00062 0.244699
1003.82 4.46308e-09 1.00062 0.244441
1003.76 4.47452e-09 1.00062 0.24478
1003.81 4.44367e-09 1.00062 0.244715
1003.78 4.42936e-09 1.00061 0.243829
1003.78 4.4221e-09 1.00061 0.243814
1003.78 4.42999e-09 1.00061 0.243724
1003.78 4.40986e-09 1.00061 0.243558
1003.81 4.44411e-09 1.00062 0.244656
1003.82 4.46115e-09 1.00062 0.244254
1003.81 4.44646e-09 1.00061 0.243549
1003.79 4.43283e-09 1.00061 0.243436
1003.78 4.40896e-09 1.00061 0.243185
1003.8 4.45001e-09 1.00061 0.24304
1003.8 4.43946e-09 1.00061 0.243062
1003.8 4.45058e-09 1.00061 0.242807
1003.82 4.46185e-09 1.00062 0.244505
1003.82 4.45787e-09 1.00062 0.244322
1003.82 4.46462e-09 1.00062 0.244358
1003.75 4.46969e-09 1.00062 0.244787
1003.82 4.44438e-09 1.00062 0.244815
1003.78 4.38335e-09 1.00061 0.243684
1003.77 4.41093e-09 1.00061 0.24361
1003.77 4.42782e-09 1.00061 0.243241
1003.78 4.41581e-09 1.00061 0.242988
1003.82 4.46136e-09 1.00062 0.244453
1003.78 4.3701e-09 1.00061 0.242424
1003.82 4.44458e-09 1.00062 0.243869
1003.81 4.52069e-09 1.00061 0.243087
1003.8 4.38265e-09 1.00061 0.242638
1003.74 4.4678e-09 1.00062 0.244757
1003.82 4.44701e-09 1.00062 0.244893
1003.82 4.46324e-09 1.00062 0.244448
1003.82 4.45846e-09 1.00062 0.244374
1003.82 4.45538e-09 1.00062 0.244121
1003.82 4.45861e-09 1.00062 0.244262
1004.41 4.8711e-09 1.00062 0.244297
1003.77 4.48081e-09 1.00062 0.244799
1003.8 4.46688e-09 1.00061 0.2438
1003.81 4.44429e-09 1.00062 0.244747
1003.81 4.44391e-09 1.00062 0.244655
1003.82 4.46334e-09 1.00062 0.244412
1003.81 4.42208e-09 1.00061 0.243787
1003.8 4.47412e-09 1.00061 0.243276
1003.82 4.46269e-09 1.00062 0.244159
1003.82 4.4419e-09 1.00062 0.243697
1003.81 4.43564e-09 1.00061 0.243646
1003.76 4.47805e-09 1.00062 0.244768
1003.82 4.44444e-09 1.00062 0.244834
1003.82 4.46232e-09 1.00062 0.244372
1003.82 4.46353e-09 1.00062 0.24444
1003.82 4.45952e-09 1.00062 0.244202
1003.78 4.40334e-09 1.00061 0.24346
1003.81 4.55933e-09 1.00061 0.243247
1003.79 4.32953e-09 1.00061 0.242658
1003.82 4.44558e-09 1.00062 0.243746
1003.81 4.55256e-09 1.00061 0.243298