# vtk DataFile Version 2.0
Wound Healing Simulation
ASCII
DATASET UNSTRUCTURED_GRID
POINTS 3012 float
69.9759 18.75 4
67.2507 60.3285 4
69.976 18.75 2
73.0099 25.446 4
71.1327 20.9142 4
68.6801 16.6661 4
67.8274 19.9255 3.98661
67.2507 60.3286 2
71.1327 54.0858 4
68.6801 58.3339 4
65.6939 62.2254 4
65.3138 59.0033 3.98761
74.6784 42.3946 4
73.7221 47.2057 4
69.9759 18.75 0
73.0099 25.446 2
68.6801 16.6661 2
71.1327 20.9142 2
67.8279 19.9274 2
74.6792 32.6053 4
73.7222 27.7943 4
72.1454 23.1494 4
70.6154 26.2222 3.98537
68.8875 21.9587 3.98629
67.2507 14.6715 4
66.639 17.9702 3.98724
65.802 21.023 3.98049
67.2507 60.3285 0
71.1327 54.0858 2
68.6801 58.3339 2
65.694 62.2255 2
65.3146 59.0022 2
72.1454 51.8506 4
69.9759 56.25 4
68.838 53.1128 3.98573
64.0165 64.0165 4
66.6124 57.1353 3.98727
63.8872 60.7681 3.98911
63.5045 57.7771 3.9825
60.3285 67.2507 4
74.6792 42.3947 2
73.7222 47.2057 2
74.9194 39.9526 4
74.2788 44.8158 4
72.1689 42.0857 3.98364
73.0099 49.554 4
71.2504 46.5978 3.98492
73.0099 25.446 0
71.1327 20.9142 0
68.6801 16.6661 0
67.8274 19.9255 0.0133945
74.6792 32.6053 2
73.7222 27.7943 2
67.2508 14.6715 2
72.1455 23.1494 2
70.6154 26.2228 2
66.6397 17.9715 2
68.8877 21.9604 2
65.8019 21.0226 2
74.9197 35.0474 4
74.2794 30.1841 4
72.1855 32.9434 3.98404
71.2794 28.4321 3.98531
69.8171 24.061 3.98581
68.3498 26.952 3.97679
66.7668 22.9326 3.97896
65.694 12.7746 4
65.3255 16.101 3.98837
64.7189 19.1905 3.98202
63.8939 22.0313 3.97692
71.1327 54.0858 0
65.6939 62.2254 0
68.6801 58.3339 0
65.3138 59.0033 0.0123885
72.1455 51.8506 2
69.9759 56.25 2
68.8384 53.1108 2
64.0165 64.0165 2
66.6132 57.1336 2
63.8879 60.7676 2
63.5047 57.7779 2
62.2254 65.694 4
58.895 65.4155 3.9926
69.7704 50.9881 3.98528
67.7855 55.168 3.98656
66.6534 52.2105 3.97829
62.3374 62.4293 3.9908
64.6656 56.0358 3.98219
62.2059 59.4105 3.98325
61.8291 56.6893 3.97961
58.3339 68.6801 4
60.3285 67.2508 2
73.7221 47.2057 0
74.6784 42.3946 0
74.9197 39.9526 2
74.2794 44.8159 2
72.1687 42.0857 2
73.0099 49.554 2
71.2504 46.5975 2
75 37.5 4
72.4059 39.8023 3.9832
71.7834 44.3529 3.98437
69.806 41.79 3.97532
70.5764 48.8128 3.98511
68.9152 46.0153 3.97636
74.6792 32.6053 0
73.7222 27.7943 0
67.2507 14.6715 0
72.1454 23.1494 0
70.6154 26.2222 0.0146293
68.8875 21.9587 0.013713
66.639 17.9702 0.0127631
65.802 21.023 0.0195058
74.9197 35.0474 2
74.2794 30.1841 2
72.1854 32.9434 2
71.2793 28.4322 2
65.694 12.7745 2
65.3262 16.1016 2
69.8172 24.0621 2
68.3496 26.9521 2
64.719 19.1896 2
66.7665 22.9325 2
63.8938 22.0306 2
72.4137 35.2242 3.98324
71.8049 30.6765 3.985
69.842 33.2685 3.97567
68.9693 29.0384 3.977
67.6147 24.9123 3.9775
66.1982 27.6342 3.97352
64.0165 10.9835 4
64.7622 23.828 3.97538
63.8915 14.3247 3.9896
63.5178 17.4406 3.98371
62.9144 20.3138 3.97828
62.1006 22.9378 3.97495
60.6849 11.0957 3.99151
57.6134 11.4413 3.98636
72.1454 51.8506 0
69.9759 56.25 0
68.838 53.1128 0.0142719
64.0165 64.0165 0
63.8872 60.7681 0.0108927
66.6124 57.1353 0.0127276
63.5045 57.7771 0.0174972
62.2255 65.694 2
58.8953 65.4155 2
69.7705 50.9867 2
67.7861 55.1659 2
66.6533 52.2104 2
62.3379 62.429 2
64.6658 56.0365 2
62.2061 59.4113 2
61.8293 56.6903 2
60.6697 63.9785 3.9918
57.0256 66.7363 3.99319
57.559 63.6962 3.98717
67.5107 50.1773 3.97688
65.7067 54.1759 3.98037
64.5428 51.3884 3.97434
60.7752 60.9437 3.98443
62.8272 55.0748 3.97938
60.663 58.1682 3.97986
60.3351 55.7956 3.97845
56.25 69.9759 4
58.3339 68.6801 2
60.3285 67.2507 0
58.9219 9.65407 3.9922
62.2254 9.30607 4
73.0099 49.554 0
74.2788 44.8158 0
71.2504 46.5978 0.0150764
72.1689 42.0857 0.0163578
74.9194 39.9526 0
75 37.5 2
72.4058 39.8024 2
71.7834 44.3527 2
69.8059 41.79 2
70.5764 48.8121 2
68.9152 46.0151 2
72.4892 37.5121 3.98312
70.0424 39.6577 3.97434
69.4329 43.9079 3.976
67.5999 41.4987 3.97192
68.2689 48.1076 3.97649
66.7138 45.4417 3.97308
74.9197 35.0474 0
74.2794 30.1841 0
72.1855 32.9434 0.0159602
71.2794 28.4321 0.0146865
65.694 12.7746 0
65.3255 16.101 0.0116319
69.8171 24.061 0.0141931
68.3498 26.952 0.0232063
66.7668 22.9326 0.0210438
64.7189 19.1905 0.0179807
63.8939 22.0313 0.0230837
72.4136 35.2241 2
71.805 30.6765 2
69.842 33.2687 2
68.9693 29.0385 2
64.0165 10.9835 2
63.892 14.325 2
63.518 17.4396 2
67.6145 24.9124 2
66.1981 27.6341 2
62.9146 20.3129 2
64.7619 23.8276 2
62.1005 22.9372 2
60.6853 11.0961 2
57.6135 11.4406 2
70.0592 35.3922 3.97462
69.47 31.1496 3.97669
67.6581 33.5907 3.97209
66.7765 29.622 3.97366
65.5282 25.6986 3.97401
64.1503 28.2542 3.97268
62.3427 12.6528 3.9906
62.8629 24.6341 3.97347
62.2022 15.7779 3.98444
61.8205 18.6759 3.98025
61.226 21.3338 3.97584
60.4335 23.7209 3.97433
59.2476 12.7727 3.98478
55.8752 10.228 3.98779
56.4066 13.1044 3.98315
69.7704 50.9881 0.0147196
62.2254 65.694 0
58.895 65.4155 0.00740002
67.7855 55.168 0.0134408
66.6534 52.2105 0.0217076
62.3374 62.4293 0.0092001
62.2059 59.4105 0.0167487
64.6656 56.0358 0.0178091
61.8291 56.6893 0.0203853
60.6701 63.9784 2
57.0259 66.7364 2
57.559 63.6971 2
67.5106 50.177 2
65.7067 54.1763 2
64.5427 51.3887 2
60.7753 60.9446 2
62.8274 55.0757 2
60.6631 58.1691 2
60.3354 55.7963 2
55.071 67.9333 3.99347
59.2207 62.3713 3.9853
55.8055 64.9138 3.98894
56.3283 62.097 3.98383
65.3359 49.4104 3.97311
63.7125 53.2972 3.97674
62.447 50.6566 3.97228
59.3363 59.5655 3.98191
61.085 54.3177 3.97831
59.2944 57.0227 3.97735
59.2496 55.1934 3.97967
48.1036 68.5815 3.99025
50.9487 69.9329 3.9939
54.0858 71.1327 4
56.25 69.976 2
58.3339 68.6801 0
57.0591 8.33403 3.99254
60.3285 7.74928 4
58.9224 9.65418 2
62.2255 9.30602 2
70.5764 48.8128 0.0148892
71.7834 44.3529 0.0156278
68.9152 46.0153 0.0236377
69.806 41.79 0.0246751
72.4059 39.8023 0.0168029
75 37.5 0
72.4891 37.5121 2
70.0424 39.6576 2
69.4329 43.9078 2
67.5999 41.4988 2
68.2688 48.1073 2
66.7137 45.4417 2
70.1305 37.5218 3.9745
67.836 39.5131 3.97095
67.2271 43.4714 3.97259
65.559 41.2117 3.97107
66.0727 47.4199 3.97331
64.6568 44.8514 3.97203
72.4137 35.2242 0.0167569
71.8049 30.6765 0.015003
69.842 33.2685 0.0243288
68.9693 29.0384 0.0229986
64.0165 10.9835 0
63.8915 14.3247 0.0104049
63.5178 17.4406 0.0162948
67.6147 24.9123 0.0224997
66.1982 27.6342 0.0264781
64.7622 23.828 0.024622
62.9144 20.3138 0.0217157
62.1006 22.9378 0.025046
60.6849 11.0957 0.00848692
57.6134 11.4413 0.0136447
70.0592 35.3923 2
69.4701 31.1497 2
67.6582 33.5906 2
66.7765 29.6219 2
62.3431 12.6532 2
62.2022 15.7774 2
61.8207 18.6749 2
65.5281 25.6982 2
64.1502 28.254 2
61.2263 21.333 2
62.8627 24.6337 2
60.4335 23.7205 2
59.2476 12.7722 2
56.4065 13.1035 2
55.8753 10.2273 2
67.8722 35.5478 3.97132
67.2693 31.6217 3.97321
65.7007 33.9269 3.97099
64.6679 30.1904 3.97241
63.5423 26.4126 3.97248
62.2615 28.7754 3.97239
60.7772 14.2172 3.98438
61.0506 25.3336 3.97296
60.6175 17.1185 3.982
60.2303 19.8064 3.97793
59.6696 22.2498 3.97413
58.9856 24.3127 3.97521
54.0382 9.13136 3.98843
57.912 14.3232 3.98275
54.7877 12.0035 3.98449
55.314 14.6353 3.9817
67.5107 50.1773 0.0231244
57.0256 66.7363 0.00680638
60.6697 63.9785 0.00820019
57.559 63.6962 0.0128283
65.7067 54.1759 0.0196278
64.5428 51.3884 0.0256572
60.7752 60.9437 0.0155696
60.663 58.1682 0.0201378
62.8272 55.0748 0.0206193
60.3351 55.7956 0.0215502
55.0713 67.9334 2
59.2207 62.3723 2
55.8054 64.9146 2
56.3283 62.098 2
65.3357 49.4104 2
63.7127 53.2979 2
62.4471 50.6569 2
59.3365 59.5665 2
61.0854 54.3184 2
59.2947 57.0235 2
59.2501 55.194 2
53.0429 69.0011 3.99372
53.9678 66.0159 3.98958
57.8826 60.8776 3.98283
54.6849 63.2137 3.98546
55.213 60.6248 3.98212
63.1983 48.6645 3.97139
61.7486 52.5817 3.97492
60.2783 50.0254 3.97109
58.0217 58.2707 3.97919
59.3351 53.957 3.97757
58.1324 55.8226 3.97535
50.1102 67.8595 3.99012
47.4642 66.5859 3.98799
46.0572 69.161 3.99043
48.1035 68.5819 2
48.8028 70.7241 3.99403
50.9489 69.933 2
51.8506 72.1454 4
54.0858 71.1327 2
56.25 69.9759 0
55.1033 7.13856 3.99281
58.3339 6.31992 4
57.0594 8.33401 2
60.3286 7.74926 2
58.9219 9.65407 0.00780244
62.2254 9.30607 0
68.2689 48.1076 0.023512
69.4329 43.9079 0.0239966
66.7138 45.4417 0.0269167
67.5999 41.4987 0.028078
70.0424 39.6577 0.0256643
72.4892 37.5121 0.0168773
70.1305 37.5218 2
67.836 39.5131 2
67.227 43.4715 2
65.5589 41.2118 2
66.0726 47.4199 2
64.6566 44.8515 2
67.9325 37.5225 3.97118
65.7894 39.3715 3.97027
65.1799 43.0278 3.97145
63.7593 40.9318 3.97141
63.9701 46.7199 3.97237
62.8121 44.2205 3.97182
70.0592 35.3922 0.0253836
69.47 31.1496 0.023309
67.6581 33.5907 0.0279107
66.7765 29.622 0.0263399
62.3427 12.6528 0.00940032
62.2022 15.7779 0.0155571
61.8205 18.6759 0.0197535
65.5282 25.6986 0.0259911
64.1503 28.2542 0.0273167
62.8629 24.6341 0.0265253
61.226 21.3338 0.0241551
60.4335 23.7209 0.0256653
59.2476 12.7727 0.0152233
56.4066 13.1044 0.0168473
55.8752 10.228 0.0122075
67.8722 35.5478 2
67.2694 31.6215 2
65.7008 33.9267 2
64.6678 30.1901 2
60.7772 14.2168 2
60.6175 17.1176 2
60.2306 19.8054 2
63.5423 26.4122 2
62.2615 28.7753 2
59.6698 22.2492 2
61.0504 25.3333 2
58.9856 24.3125 2
57.9118 14.3226 2
55.3138 14.6345 2
54.0382 9.1308 2
54.7877 12.0027 2
65.8783 35.667 3.97044
65.1907 32.1529 3.97164
64.2874 34.2496 3.97124
62.6006 30.6337 3.9724
61.655 27.0694 3.97177
60.8548 29.1371 3.97251
59.3134 15.6601 3.98265
59.3359 25.7904 3.97478
59.1292 18.3449 3.98061
58.7477 20.8436 3.97542
58.2925 23.0834 3.97308
57.9748 24.6572 3.9764
52.1128 8.14997 3.98882
53.0586 11.01 3.98537
56.6786 15.7321 3.98183
53.8105 13.6701 3.98295
54.378 15.9866 3.98143
55.071 67.9333 0.00652731
65.3359 49.4104 0.0268896
55.8055 64.9138 0.0110614
59.2207 62.3713 0.0146983
56.3283 62.097 0.0161683
63.7125 53.2972 0.0232628
62.447 50.6566 0.027721
59.3363 59.5655 0.0180922
59.2944 57.0227 0.0226473
61.085 54.3177 0.0216909
59.2496 55.1934 0.0203288
53.0431 69.0012 2
53.9676 66.0166 2
57.8826 60.8785 2
54.6848 63.2147 2
55.213 60.6261 2
63.1982 48.6646 2
61.7489 52.5823 2
60.2784 50.0256 2
58.0221 58.2718 2
59.3356 53.9576 2
58.1328 55.8232 2
52.0713 67.0024 3.98992
52.9541 64.224 3.98677
56.6506 59.4977 3.98131
53.6822 61.6306 3.98345
[...]
POINT_DATA 3012
SCALARS rho_c_phif_kappa float 4
LOOKUP_TABLE default
1000 0 1.00072 0.24808
1000 0 1.00065 0.248295
1000 0 1.00072 0.247878
1000 0 1.00072 0.248114
1000 0 1.00072 0.248056
1000 0 1.00072 0.248078
1005.2 5.96644e-09 1.00078 0.247873
1000 0 1.00065 0.248284
1000 0 1.00065 0.248093
1000 0 1.00065 0.248137
1000 0 1.00072 0.247794
1005.2 5.88987e-09 1.00082 0.247693
1000 0 1.00072 0.248171
1000 0 1.00072 0.248106
1000 0 1.00072 0.247684
1000 0 1.00072 0.248026
1000 0 1.00072 0.247853
1000 0 1.00072 0.247895
1005.2 5.97349e-09 1.00078 0.24798
1000 0 1.00065 0.248335
1000 0 1.00072 0.248197
1000 0 1.00072 0.248059
1005.17 6.00337e-09 1.00077 0.247981
1005.19 5.98301e-09 1.00078 0.247927
1000 0 1.00072 0.248008
1005.21 5.94888e-09 1.00078 0.247788
1004.82 5.6359e-09 1.00082 0.247891
1000 0 1.00065 0.248265
1000 0 1.00069 0.24799
1000 0 1.00069 0.247985
1000 0 1.00065 0.248295
1005.19 5.89626e-09 1.00082 0.247707
1000 0 1.00072 0.247858
1000 0 1.00072 0.247785
1005.19 5.98773e-09 1.00078 0.247973
1000 0 1.00065 0.248231
1005.19 5.92159e-09 1.00078 0.24793
1005.22 5.87083e-09 1.00082 0.247801
1004.83 5.6649e-09 1.00082 0.247922
1000 0 1.00065 0.248393
1000 0 1.00065 0.248351
1000 0 1.00069 0.248198
1000 0 1.00065 0.248379
1000 0 1.00072 0.248203
1005.14 6.00877e-09 1.00081 0.248084
1000 0 1.00065 0.2482
1005.17 6.02055e-09 1.00078 0.248058
1000 0 1.00072 0.247951
1000 0 1.00072 0.247734
1000 0 1.00072 0.24764
1005.2 5.96644e-09 1.00078 0.248082
1000 0 1.00069 0.248376
1000 0 1.00072 0.248142
1000 0 1.00072 0.24781
1000 0 1.00072 0.247937
1005.15 6.00943e-09 1.00077 0.248015
1005.21 5.95553e-09 1.00078 0.247904
1005.19 5.98977e-09 1.00078 0.248017
1004.82 5.63377e-09 1.00082 0.247853
1000 0 1.00065 0.248374
1000 0 1.00072 0.248267
1005.14 6.00102e-09 1.00078 0.248106
1005.16 6.00685e-09 1.00077 0.24803
1005.18 5.99616e-09 1.00078 0.247949
1004.8 5.6009e-09 1.00082 0.247723
1004.81 5.62328e-09 1.00082 0.247845
1000 0 1.00072 0.247936
1005.23 5.93178e-09 1.00078 0.247741
1004.82 5.64847e-09 1.00082 0.247864
1004.76 5.54691e-09 1.00081 0.247324
1000 0 1.00065 0.248205
1000 0 1.00065 0.248273
1000 0 1.00065 0.248262
1005.2 5.88987e-09 1.00082 0.247721
1000 0 1.00065 0.248164
1000 0 1.00065 0.248224
1005.19 5.99459e-09 1.00082 0.247881
1000 0 1.00068 0.248
1005.19 5.92843e-09 1.00082 0.247765
1005.21 5.87604e-09 1.0008 0.247856
1004.83 5.66264e-09 1.00082 0.247933
1000 0 1.00065 0.248359
1005.31 5.87127e-09 1.00082 0.24785
1005.19 6.00809e-09 1.00082 0.248016
1005.19 5.9575e-09 1.00082 0.247957
1004.81 5.61904e-09 1.00081 0.247764
1005.24 5.86094e-09 1.00078 0.247939
1004.83 5.65426e-09 1.00082 0.247908
1004.83 5.67083e-09 1.00082 0.247924
1004.77 5.56284e-09 1.00081 0.247714
1000 0 1.00065 0.248424
1000 0 1.00065 0.248389
1000 0 1.00065 0.248244
1000 0 1.00065 0.248346
1000 0 1.00065 0.248372
1000 0 1.00069 0.248264
1005.12 6.01599e-09 1.0008 0.248052
1000 0 1.00069 0.248103
1005.15 6.0266e-09 1.0008 0.24803
1000 0 1.00065 0.248393
1005.13 5.99867e-09 1.00081 0.248024
1005.16 6.01643e-09 1.00078 0.248065
1004.8 5.59299e-09 1.00081 0.247516
1005.18 6.01908e-09 1.00078 0.247972
1004.8 5.59501e-09 1.00081 0.247706
1000 0 1.00072 0.24817
1000 0 1.00072 0.248105
1000 0 1.00072 0.247606
1000 0 1.00072 0.247819
1005.17 6.00337e-09 1.00077 0.248043
1005.19 5.98301e-09 1.00078 0.248103
1005.21 5.94888e-09 1.00078 0.248014
1004.82 5.6359e-09 1.00082 0.247815
1000 0 1.00065 0.248359
1000 0 1.00072 0.248227
1005.12 6.0083e-09 1.00079 0.248048
1005.14 6.01294e-09 1.00077 0.248053
1000 0 1.00069 0.247991
1005.22 5.93711e-09 1.00078 0.247862
1005.17 6.0024e-09 1.00078 0.248013
1004.8 5.59901e-09 1.00082 0.247687
1004.82 5.64639e-09 1.00082 0.247835
1004.81 5.62109e-09 1.00082 0.247829
1004.76 5.54746e-09 1.00081 0.24732
1005.12 5.99607e-09 1.00081 0.24809
1005.15 6.00612e-09 1.00077 0.248054
1004.8 5.5956e-09 1.00082 0.247575
1004.8 5.59521e-09 1.00082 0.247658
1004.81 5.61122e-09 1.00082 0.247766
1004.74 5.51965e-09 1.00081 0.247144
1000 0 1.00065 0.248286
1004.75 5.53769e-09 1.00081 0.247241
1005.25 5.91513e-09 1.00082 0.247684
1004.83 5.65779e-09 1.00082 0.247884
1004.77 5.55685e-09 1.00081 0.247404
1004.77 5.56238e-09 1.00081 0.246824
1005.3 5.90001e-09 1.00082 0.247875
1004.79 5.65959e-09 1.00082 0.24832
1000 0 1.00065 0.248177
1000 0 1.00065 0.248248
1005.19 5.98773e-09 1.00082 0.247888
1000 0 1.00065 0.248309
1005.22 5.87083e-09 1.00082 0.247725
1005.19 5.92159e-09 1.00082 0.247773
1004.83 5.6649e-09 1.00082 0.247944
1000 0 1.00065 0.248355
1005.3 5.87428e-09 1.00082 0.247847
1005.18 6.0143e-09 1.0008 0.248017
1005.19 5.96444e-09 1.0008 0.247957
1004.81 5.61694e-09 1.00081 0.247785
1005.23 5.86506e-09 1.00082 0.247764
1004.83 5.65196e-09 1.00082 0.247933
1004.83 5.66904e-09 1.00082 0.247933
1004.77 5.56306e-09 1.00081 0.247701
1005.27 5.86317e-09 1.00082 0.247821
1005.34 5.88058e-09 1.00082 0.24783
1004.8 5.66533e-09 1.00082 0.248242
1004.8 5.6065e-09 1.00081 0.247766
1004.82 5.63847e-09 1.00082 0.24781
1004.75 5.5349e-09 1.00081 0.247194
1004.82 5.67087e-09 1.00082 0.248081
1004.77 5.55744e-09 1.00081 0.247561
1004.78 5.56945e-09 1.00082 0.247697
1004.79 5.57968e-09 1.00081 0.247279
1000 0 1.00065 0.248449
1000 0 1.00065 0.248418
1000 0 1.00065 0.248385
1005.33 5.9024e-09 1.00082 0.247855
1000 0 1.00065 0.248333
1000 0 1.00065 0.248197
1000 0 1.00065 0.248293
1005.17 6.02055e-09 1.00082 0.248023
1005.14 6.00877e-09 1.00081 0.248067
1000 0 1.00065 0.248386
1000 0 1.00065 0.248388
1005.11 6.0065e-09 1.00081 0.248046
1005.13 6.02295e-09 1.0008 0.248044
1004.8 5.59092e-09 1.00081 0.247521
1005.17 6.0249e-09 1.00082 0.24796
1004.8 5.59306e-09 1.00081 0.247698
1005.13 5.99263e-09 1.00081 0.248061
1004.8 5.59105e-09 1.00081 0.247437
1004.8 5.59473e-09 1.00081 0.247621
1004.73 5.50924e-09 1.00081 0.24706
1004.8 5.59727e-09 1.00081 0.247753
1004.73 5.51745e-09 1.00081 0.247167
1000 0 1.00065 0.248367
1000 0 1.00072 0.248207
1005.14 6.00102e-09 1.00081 0.248112
1005.16 6.00685e-09 1.00077 0.248068
1000 0 1.00065 0.248163
1005.23 5.93178e-09 1.00078 0.247988
1005.18 5.99616e-09 1.00078 0.248071
1004.8 5.6009e-09 1.00082 0.247649
1004.81 5.62328e-09 1.00082 0.247818
1004.82 5.64847e-09 1.00082 0.247802
1004.76 5.54691e-09 1.00081 0.247315
1005.1 6.00401e-09 1.00081 0.248068
1005.12 6.01253e-09 1.00077 0.248083
1004.81 5.59358e-09 1.00081 0.247567
1004.8 5.59333e-09 1.00082 0.247664
1000 0 1.00065 0.248294
1005.24 5.91963e-09 1.0008 0.247809
1004.82 5.65566e-09 1.00082 0.247887
1004.81 5.60915e-09 1.00082 0.247742
1004.74 5.51999e-09 1.00081 0.247102
1004.77 5.55734e-09 1.00081 0.247389
1004.75 5.53815e-09 1.00081 0.247252
1004.77 5.56257e-09 1.00081 0.24683
1005.29 5.90367e-09 1.00082 0.247843
1004.79 5.65807e-09 1.00082 0.248281
1004.8 5.59257e-09 1.00081 0.247475
1004.8 5.59531e-09 1.00082 0.247647
1004.73 5.51053e-09 1.00081 0.247136
1004.73 5.51493e-09 1.00081 0.247078
1004.74 5.52868e-09 1.00081 0.247159
1004.75 5.53492e-09 1.00081 0.246691
1005.27 5.90345e-09 1.00082 0.247798
1004.76 5.55269e-09 1.00081 0.24673
1004.82 5.66153e-09 1.00082 0.248044
1004.77 5.56595e-09 1.00081 0.247592
1004.78 5.57192e-09 1.00081 0.246927
1004.76 5.55485e-09 1.00081 0.246309
1004.8 5.66075e-09 1.00082 0.248243
1004.78 5.65656e-09 1.00082 0.248388
1004.78 5.56857e-09 1.00082 0.248122
1005.19 6.00809e-09 1.00082 0.247949
1000 0 1.00065 0.248351
1005.31 5.87127e-09 1.00082 0.247834
1005.19 5.9575e-09 1.00082 0.247827
1004.81 5.61904e-09 1.00081 0.247806
1005.24 5.86094e-09 1.00082 0.247806
1004.83 5.67083e-09 1.00082 0.247945
1004.83 5.65426e-09 1.00082 0.247954
1004.77 5.56284e-09 1.00081 0.24769
1005.26 5.86657e-09 1.00082 0.247839
1005.34 5.88329e-09 1.00082 0.247808
1004.8 5.66376e-09 1.00082 0.248272
1004.8 5.6045e-09 1.00081 0.247768
1004.82 5.63629e-09 1.00082 0.247843
1004.75 5.53548e-09 1.00081 0.247193
1004.82 5.66918e-09 1.00082 0.248085
1004.77 5.55769e-09 1.00081 0.247577
1004.78 5.56983e-09 1.00082 0.2477
1004.79 5.5796e-09 1.00081 0.247237
1005.38 5.89132e-09 1.00082 0.247792
1004.81 5.66752e-09 1.00082 0.248213
1004.79 5.66248e-09 1.00082 0.248293
1004.78 5.57094e-09 1.00082 0.248152
1004.74 5.51436e-09 1.00081 0.247188
1004.76 5.5477e-09 1.00081 0.247316
1004.76 5.55826e-09 1.00081 0.246657
1004.78 5.57286e-09 1.00082 0.247892
1004.78 5.57694e-09 1.00081 0.247015
1004.79 5.58178e-09 1.00082 0.247166
1004.79 5.57998e-09 1.00081 0.246838
1004.74 5.65192e-09 1.00082 0.248205
1005.44 5.91326e-09 1.00082 0.247737
1000 0 1.00065 0.248474
1000 0 1.00065 0.248446
1000 0 1.00065 0.248415
1005.36 5.91178e-09 1.00082 0.247797
1000 0 1.00065 0.248374
1005.32 5.90548e-09 1.00082 0.247863
1000 0 1.00065 0.248336
1005.18 6.01908e-09 1.00082 0.247993
1005.16 6.01643e-09 1.00082 0.24805
1004.8 5.59501e-09 1.00081 0.247693
1004.8 5.59299e-09 1.00081 0.247526
1005.13 5.99867e-09 1.00081 0.248064
1000 0 1.00065 0.248394
1005.09 6.0011e-09 1.00081 0.248059
1004.8 5.58892e-09 1.00081 0.247439
1004.8 5.59268e-09 1.00081 0.247622
1004.73 5.5096e-09 1.00081 0.247056
1004.8 5.59542e-09 1.00081 0.247745
1004.73 5.5177e-09 1.00081 0.247166
1004.8 5.5927e-09 1.00081 0.247429
1004.72 5.5012e-09 1.00081 0.24699
1004.73 5.51465e-09 1.00081 0.247127
1004.74 5.52831e-09 1.00081 0.246712
1004.74 5.52249e-09 1.00081 0.247189
1004.75 5.53007e-09 1.00081 0.246716
1005.12 5.99607e-09 1.00081 0.24804
1005.15 6.00612e-09 1.00077 0.248105
1004.8 5.5956e-09 1.00081 0.247557
1004.8 5.59521e-09 1.00082 0.247668
1000 0 1.00065 0.248308
1005.25 5.91513e-09 1.00078 0.247868
1004.83 5.65779e-09 1.00082 0.247887
1004.81 5.61122e-09 1.00082 0.247721
1004.74 5.51965e-09 1.00081 0.247059
1004.75 5.53769e-09 1.00081 0.24726
1004.77 5.55685e-09 1.00081 0.247374
1004.77 5.56238e-09 1.00081 0.246835
1005.3 5.90001e-09 1.00082 0.247821
1004.79 5.65959e-09 1.00082 0.24825
1004.8 5.59038e-09 1.00081 0.247472
1004.81 5.59351e-09 1.00082 0.247641
1004.73 5.51086e-09 1.00081 0.247116
1004.73 5.51521e-09 1.00081 0.247103
1005.26 5.90753e-09 1.00082 0.247764
1004.82 5.65963e-09 1.00082 0.248032
1004.78 5.56612e-09 1.00081 0.247619
1004.74 5.5291e-09 1.00081 0.247165
1004.75 5.53508e-09 1.00081 0.246651
1004.78 5.57221e-09 1.00081 0.246892
1004.76 5.55286e-09 1.00081 0.246729
1004.76 5.55511e-09 1.00081 0.246294
1004.8 5.65918e-09 1.00082 0.248237
1004.78 5.56885e-09 1.00082 0.248138
1004.78 5.65505e-09 1.00082 0.248343
1004.73 5.50495e-09 1.00081 0.247059
1004.73 5.51046e-09 1.00081 0.247142
1004.74 5.52439e-09 1.00081 0.246816
1004.74 5.52529e-09 1.00081 0.246681
1004.76 5.5415e-09 1.00081 0.246616
1004.74 5.52308e-09 1.00081 0.246321
1004.81 5.66181e-09 1.00082 0.248153
1004.76 5.54515e-09 1.00081 0.24623
1004.78 5.57001e-09 1.00082 0.24792
1004.79 5.57925e-09 1.00081 0.247074
1004.77 5.56971e-09 1.00081 0.246317
1004.76 5.54851e-09 1.00081 0.245789
1004.77 5.65241e-09 1.00082 0.248417
1004.78 5.5682e-09 1.00082 0.248151
1004.78 5.56942e-09 1.00082 0.248209
1004.8 5.59085e-09 1.00082 0.247826
1004.8 5.6065e-09 1.00081 0.247771
1005.34 5.88058e-09 1.00082 0.247781
1005.27 5.86317e-09 1.00082 0.247867
1004.8 5.66533e-09 1.00082 0.248309
1004.82 5.63847e-09 1.00082 0.247872
1004.75 5.5349e-09 1.00081 0.24719
1004.82 5.67087e-09 1.00082 0.248085
1004.78 5.56945e-09 1.00082 0.2477
1004.77 5.55744e-09 1.00081 0.247595
1004.79 5.57968e-09 1.00081 0.247196
1005.37 5.89389e-09 1.00082 0.247772
1004.81 5.66591e-09 1.00082 0.248223
1004.79 5.66108e-09 1.00082 0.248325
1004.78 5.57099e-09 1.00082 0.248146
1004.74 5.51474e-09 1.00081 0.247184
1004.76 5.54821e-09 1.00081 0.247319
1004.76 5.55861e-09 1.00081 0.246653
1004.78 5.57307e-09 1.00082 0.24789
1004.78 5.57696e-09 1.00081 0.247042
1004.8 5.58213e-09 1.00082 0.247156
1004.79 5.58002e-09 1.00081 0.246878
1005.41 5.90124e-09 1.00082 0.247764
1004.78 5.65898e-09 1.00082 0.248327
1004.78 5.57124e-09 1.00082 0.248097
1004.78 5.57166e-09 1.00082 0.248263
1004.8 5.5911e-09 1.00082 0.247771
1004.76 5.60605e-09 1.00081 0.246709
1004.78 5.56021e-09 1.00081 0.246711
1004.76 5.55439e-09 1.00081 0.246091
1004.8 5.58286e-09 1.00082 0.24734
1004.78 5.57308e-09 1.00081 0.246412
1004.79 5.59986e-09 1.00081 0.246652
1004.75 5.65448e-09 1.00082 0.248254
1004.79 5.56999e-09 1.00082 0.248557
1004.73 5.6483e-09 1.00081 0.248169
1004.74 5.65083e-09 1.00082 0.248211
1005.47 5.92522e-09 1.00079 0.247914
1005.44 5.91564e-09 1.0008 0.247859
1000 0 1.00072 0.248106
1000 0 1.00065 0.248472
1000 0 1.00065 0.248444
1005.4 5.92515e-09 1.00082 0.247763
1000 0 1.00065 0.248407
1005.36 5.9144e-09 1.00082 0.247825
1000 0 1.00065 0.248376
1005.33 5.9024e-09 1.00082 0.247863
1000 0 1.00065 0.248338
1004.8 5.59727e-09 1.00081 0.247738
1004.8 5.59473e-09 1.00081 0.247623
1004.73 5.51745e-09 1.00081 0.247164
1004.73 5.50924e-09 1.00081 0.247052
1004.8 5.59105e-09 1.00081 0.247441
1005.13 5.99263e-09 1.00081 0.248047
1004.81 5.59037e-09 1.00081 0.247427
1004.72 5.50156e-09 1.00081 0.246988
1004.73 5.5149e-09 1.00081 0.247124
1004.74 5.5284e-09 1.00081 0.246692
1004.74 5.52283e-09 1.00081 0.247185
1004.75 5.52993e-09 1.00081 0.246713
1004.72 5.49142e-09 1.00081 0.246982
1004.74 5.53605e-09 1.00081 0.246693
1004.74 5.52211e-09 1.00081 0.246705
1004.73 5.5278e-09 1.00081 0.246439
1004.75 5.5295e-09 1.00081 0.246727
1004.74 5.54048e-09 1.00081 0.246273
1004.8 5.59257e-09 1.00081 0.247473
1004.8 5.59531e-09 1.00082 0.247632
1004.73 5.51053e-09 1.00081 0.247097
1004.73 5.51493e-09 1.00081 0.247128
1005.27 5.90345e-09 1.00082 0.247736
1004.82 5.66153e-09 1.00082 0.248025
1004.77 5.56595e-09 1.00081 0.247651
1004.74 5.52868e-09 1.00081 0.247172
1004.75 5.53492e-09 1.00081 0.246612
1004.76 5.55269e-09 1.00081 0.246728
1004.78 5.57192e-09 1.00081 0.246857
1004.76 5.55485e-09 1.00081 0.246277
1004.8 5.66075e-09 1.00082 0.248227
1004.78 5.56857e-09 1.00081 0.248151
1004.78 5.65656e-09 1.00082 0.248305
1004.72 5.50532e-09 1.00081 0.247045
1004.73 5.51061e-09 1.00081 0.247131
1004.74 5.52441e-09 1.00081 0.246796
1004.74 5.52509e-09 1.00081 0.24669
1004.81 5.66012e-09 1.00082 0.248163
1004.78 5.5699e-09 1.00082 0.247923
1004.79 5.57936e-09 1.00081 0.247099
1004.76 5.54152e-09 1.00081 0.246649
1004.74 5.52282e-09 1.00081 0.246272
1004.77 5.57012e-09 1.00081 0.246281
1004.76 5.54513e-09 1.00081 0.246246
1004.76 5.54843e-09 1.00081 0.24576
1004.78 5.56836e-09 1.00082 0.248155
1004.8 5.59099e-09 1.00082 0.247829
1004.77 5.65102e-09 1.00082 0.24839
1004.78 5.56934e-09 1.00082 0.248227
1004.74 5.5371e-09 1.00081 0.246764
1004.74 5.53725e-09 1.00081 0.246764
1004.74 5.54334e-09 1.00081 0.246588
1004.74 5.52932e-09 1.00081 0.246384
1004.75 5.54502e-09 1.00081 0.246158
1004.74 5.52566e-09 1.00081 0.245939
1004.78 5.56941e-09 1.00082 0.2481
1004.76 5.54851e-09 1.00081 0.245666
1004.8 5.58191e-09 1.00081 0.247469
1004.79 5.59256e-09 1.00081 0.246495
1004.77 5.55363e-09 1.00081 0.245723
1004.76 5.55451e-09 1.00081 0.245292
1004.76 5.64901e-09 1.00082 0.248384
1004.78 5.56852e-09 1.00082 0.248385
1004.8 5.58886e-09 1.00082 0.247914
1004.8 5.59164e-09 1.00082 0.247791
1004.79 5.58849e-09 1.00082 0.247696
1005.38 5.89132e-09 1.00082 0.247751
1004.74 5.51436e-09 1.00081 0.247178
1004.79 5.66248e-09 1.00082 0.248362
1004.81 5.66752e-09 1.00082 0.248229
1004.78 5.57094e-09 1.00082 0.248142
1004.76 5.5477e-09 1.00081 0.247322
1004.76 5.55826e-09 1.00081 0.246648
1004.78 5.57286e-09 1.00082 0.247886
1004.79 5.58178e-09 1.00082 0.247142
1004.78 5.57694e-09 1.00081 0.247068
1004.79 5.57998e-09 1.00081 0.246918
1005.41 5.90373e-09 1.00082 0.247747
1004.78 5.65767e-09 1.00082 0.248346
1004.78 5.57143e-09 1.00082 0.248094
1004.78 5.57161e-09 1.00082 0.248267
1004.8 5.59084e-09 1.00082 0.247763
1004.76 5.6065e-09 1.00081 0.246706
1004.78 5.56024e-09 1.00081 0.246703
1004.76 5.55438e-09 1.00081 0.24606
1004.8 5.58297e-09 1.00082 0.247346
1004.78 5.57287e-09 1.00081 0.246476
1004.79 5.6005e-09 1.00081 0.246662
1004.77 5.65712e-09 1.00082 0.2483
1004.78 5.57128e-09 1.00082 0.2484
1004.8 5.58651e-09 1.00082 0.247668
1004.8 5.58826e-09 1.00082 0.247843
1004.8 5.59476e-09 1.00082 0.247479
1004.73 5.31337e-09 1.00081 0.246311
1004.77 5.64276e-09 1.00081 0.24595
1004.75 5.43819e-09 1.00081 0.245207
1004.8 5.6142e-09 1.00082 0.246757
1004.78 5.59368e-09 1.00081 0.246071
1004.75 5.65343e-09 1.00082 0.24826
1004.79 5.57e-09 1.00082 0.248517
1004.79 5.57005e-09 1.00082 0.248558
1004.8 5.59408e-09 1.00082 0.248299
1004.79 5.56993e-09 1.00082 0.248554
1004.72 5.64336e-09 1.00081 0.248152
1004.73 5.64734e-09 1.00081 0.248173
1005.49 5.94055e-09 1.00079 0.247897
1004.74 5.65192e-09 1.00082 0.248217
1005.47 5.92738e-09 1.00079 0.247951
1000 0 1.00072 0.248119
1005.44 5.91326e-09 1.00079 0.247942
1000 0 1.00069 0.248231
1000 0 1.00065 0.24847
1005.43 5.93917e-09 1.00082 0.247738
1005.39 5.92768e-09 1.00082 0.247785
1000 0 1.00065 0.248437
1000 0 1.00065 0.24841
1005.36 5.91178e-09 1.00082 0.247847
1000 0 1.00065 0.248377
1004.74 5.52249e-09 1.00081 0.24718
1004.73 5.51465e-09 1.00081 0.247122
1004.75 5.53007e-09 1.00081 0.246712
1004.74 5.52831e-09 1.00081 0.246673
1004.72 5.5012e-09 1.00081 0.246985
1004.8 5.5927e-09 1.00081 0.247423
1004.72 5.49198e-09 1.00081 0.246981
1004.74 5.53641e-09 1.00081 0.246693
1004.74 5.52219e-09 1.00081 0.246705
1004.73 5.52833e-09 1.00081 0.24641
1004.75 5.52978e-09 1.00081 0.246723
1004.74 5.54088e-09 1.00081 0.246251
1004.74 5.57884e-09 1.00081 0.246716
1004.73 5.54163e-09 1.00081 0.246522
1004.74 5.56605e-09 1.00081 0.246303
1004.74 5.44039e-09 1.00081 0.246255
1004.75 5.58541e-09 1.00081 0.246271
1004.73 5.43261e-09 1.00081 0.245929
1004.73 5.50495e-09 1.00081 0.247029
1004.73 5.51046e-09 1.00081 0.24712
1004.74 5.52439e-09 1.00081 0.246777
1004.74 5.52529e-09 1.00081 0.2467
1004.81 5.66181e-09 1.00082 0.248168
1004.78 5.57001e-09 1.00082 0.247923
1004.79 5.57925e-09 1.00081 0.247121
1004.76 5.5415e-09 1.00081 0.246682
1004.74 5.52308e-09 1.00081 0.246224
1004.76 5.54515e-09 1.00081 0.246261
1004.77 5.56971e-09 1.00081 0.246248
1004.76 5.54851e-09 1.00081 0.245725
1004.78 5.5682e-09 1.00082 0.248162
1004.8 5.59085e-09 1.00082 0.247834
1004.77 5.65241e-09 1.00082 0.248363
1004.78 5.56942e-09 1.00082 0.248246
1004.74 5.53757e-09 1.00081 0.246768
1004.74 5.53768e-09 1.00081 0.246766
1004.74 5.54436e-09 1.00081 0.246587
1004.74 5.53032e-09 1.00081 0.246385
1004.78 5.56933e-09 1.00082 0.248108
1004.8 5.58178e-09 1.00082 0.247505
1004.79 5.59309e-09 1.00081 0.246474
1004.75 5.54577e-09 1.00081 0.246202
1004.74 5.52715e-09 1.00081 0.245941
1004.77 5.5543e-09 1.00081 0.245718
1004.76 5.54961e-09 1.00081 0.245672
1004.76 5.55508e-09 1.00081 0.245316
1004.8 5.58862e-09 1.00082 0.24792
1004.79 5.58839e-09 1.00082 0.247695
1004.8 5.59151e-09 1.00082 0.247781
1004.76 5.64777e-09 1.00082 0.24837
1004.78 5.56848e-09 1.00082 0.248398
1004.73 5.47039e-09 1.00081 0.246504
1004.73 5.48304e-09 1.00081 0.246432
1004.73 5.4908e-09 1.00081 0.245997
1004.73 5.48343e-09 1.00081 0.245669
1004.8 5.58497e-09 1.00082 0.247834
1004.74 5.45992e-09 1.00081 0.24474
1004.79 5.60957e-09 1.00081 0.246967
1004.78 5.57231e-09 1.00081 0.245822
1004.77 5.51737e-09 1.00081 0.245137
1004.74 5.64507e-09 1.00082 0.248327
1004.79 5.56597e-09 1.00081 0.248496
1004.8 5.59408e-09 1.00082 0.247934
1004.79 5.59268e-09 1.00082 0.247767
1004.79 5.59313e-09 1.00082 0.247484
1004.79 5.59277e-09 1.00082 0.247649
1005.41 5.90124e-09 1.00082 0.24773
1004.78 5.65898e-09 1.00082 0.248364
1004.76 5.60605e-09 1.00081 0.246704
1004.78 5.57166e-09 1.00082 0.248269
1004.78 5.57124e-09 1.00082 0.248095
1004.8 5.5911e-09 1.00082 0.247755
1004.78 5.56021e-09 1.00081 0.246696
1004.76 5.55439e-09 1.00081 0.246032
1004.8 5.58286e-09 1.00082 0.247355
1004.79 5.59986e-09 1.00081 0.246673
1004.78 5.57308e-09 1.00081 0.246538
1004.77 5.6559e-09 1.00082 0.24831
1004.78 5.57122e-09 1.00082 0.248416
1004.8 5.58639e-09 1.00082 0.247676
1004.8 5.58813e-09 1.00082 0.247845
1004.8 5.59466e-09 1.00082 0.24746
1004.73 5.31373e-09 1.00081 0.24628
1004.77 5.64384e-09 1.00081 0.245968
1004.75 5.44022e-09 1.00081 0.245162
1004.8 5.61454e-09 1.00082 0.246736
1004.78 5.59436e-09 1.00081 0.246053