# vtk DataFile Version 2.0
Wound Healing Simulation
ASCII
DATASET UNSTRUCTURED_GRID
POINTS 3012 float
69.9759 18.75 4
67.2507 60.3285 4
69.976 18.75 2
73.0099 25.446 4
71.1327 20.9142 4
68.6801 16.6661 4
67.8189 19.9234 3.96951
67.2507 60.3286 2
71.1327 54.0858 4
68.6801 58.3339 4
65.6939 62.2254 4
65.3055 58.9998 3.96863
74.6784 42.3946 4
73.7221 47.2057 4
69.9759 18.75 0
73.0099 25.446 2
68.6801 16.6661 2
71.1327 20.9142 2
67.8193 19.9276 2
74.6792 32.6053 4
73.7222 27.7943 4
72.1454 23.1494 4
70.6102 26.2211 3.97065
68.88 21.9558 3.96996
67.2507 14.6715 4
66.6295 17.9703 3.96858
65.6886 21.0608 3.96033
67.2507 60.3285 0
71.1327 54.0858 2
68.6801 58.3339 2
65.694 62.2255 2
65.3073 58.9935 2
72.1454 51.8506 4
69.9759 56.25 4
68.8306 53.1152 3.96993
64.0165 64.0165 4
66.6036 57.1345 3.9693
63.8783 60.7615 3.96485
63.4136 57.7335 3.95695
60.3285 67.2507 4
74.6792 42.3947 2
73.7222 47.2057 2
74.9194 39.9526 4
74.2788 44.8158 4
72.1653 42.086 3.97326
73.0099 49.554 4
71.2458 46.5985 3.97161
73.0099 25.446 0
71.1327 20.9142 0
68.6801 16.6661 0
67.8189 19.9234 0.0304938
74.6792 32.6053 2
73.7222 27.7943 2
67.2508 14.6715 2
72.1455 23.1494 2
70.6094 26.2224 2
66.6307 17.975 2
68.8799 21.9588 2
65.69 21.0614 2
74.9197 35.0474 4
74.2794 30.1841 4
72.182 32.9448 3.97332
71.2749 28.4324 3.97134
69.8108 24.0586 3.97015
68.2746 26.9723 3.96402
66.6673 22.9632 3.9623
65.694 12.7746 4
65.3163 16.1038 3.96812
64.5979 19.235 3.95808
63.6229 22.137 3.96637
71.1327 54.0858 0
65.6939 62.2254 0
68.6801 58.3339 0
65.3055 58.9998 0.0313743
72.1455 51.8506 2
69.9759 56.25 2
68.8308 53.1115 2
64.0165 64.0165 2
66.6051 57.1285 2
63.8798 60.7543 2
63.4053 57.7331 2
62.2254 65.694 4
58.8882 65.4082 3.97294
69.7639 50.9904 3.97022
67.7772 55.1694 3.96976
66.5459 52.1779 3.96303
62.3287 62.4223 3.96613
64.5546 55.9936 3.95924
62.1679 59.3707 3.95255
61.5994 56.5735 3.96141
58.3339 68.6801 4
60.3285 67.2508 2
73.7221 47.2057 0
74.6784 42.3946 0
74.9197 39.9526 2
74.2794 44.8159 2
72.1642 42.0848 2
73.0099 49.554 2
71.2449 46.5968 2
75 37.5 4
72.4026 39.8028 3.97413
71.7793 44.3532 3.97264
69.7709 41.7855 3.96784
70.571 48.8145 3.97095
68.8469 46.0003 3.96657
74.6792 32.6053 0
73.7222 27.7943 0
67.2507 14.6715 0
72.1454 23.1494 0
70.6102 26.2211 0.0293489
68.88 21.9558 0.0300434
66.6295 17.9703 0.0314197
65.6886 21.0608 0.0396685
74.9197 35.0474 2
74.2794 30.1841 2
72.1807 32.9449 2
71.2738 28.4333 2
65.694 12.7745 2
65.3169 16.1097 2
69.8102 24.0606 2
68.2774 26.9729 2
64.5911 19.2368 2
66.6694 22.9641 2
63.6237 22.1373 2
72.4105 35.2254 3.97413
71.8009 30.6777 3.97271
69.8063 33.2769 3.96705
68.9076 29.0545 3.96508
67.5283 24.9371 3.96339
65.9339 27.7057 3.97478
64.0165 10.9835 4
64.485 23.9236 3.96957
63.8812 14.3311 3.96442
63.4064 17.4889 3.955
62.6504 20.43 3.96329
61.6699 23.1134 3.97314
60.6778 11.106 3.97035
57.6008 11.5041 3.96305
72.1454 51.8506 0
69.9759 56.25 0
68.8306 53.1152 0.0300736
64.0165 64.0165 0
63.8783 60.7615 0.035154
66.6036 57.1345 0.0307
63.4136 57.7335 0.043052
62.2255 65.694 2
58.8919 65.4022 2
69.7637 50.9877 2
67.778 55.1644 2
66.5469 52.1769 2
62.3313 62.4129 2
64.5479 55.9922 2
62.1584 59.3706 2
61.6044 56.575 2
60.6619 63.9709 3.97019
57.0197 66.7298 3.97557
57.5412 63.6378 3.96724
67.4107 50.1501 3.96417
65.5947 54.1383 3.96113
64.2445 51.2888 3.97075
60.7566 60.897 3.9577
62.5679 54.9627 3.96541
60.4444 58.0422 3.95648
59.9849 55.6194 3.96754
56.25 69.9759 4
58.3339 68.6801 2
60.3285 67.2507 0
58.9172 9.6643 3.97087
62.2254 9.30607 4
73.0099 49.554 0
74.2788 44.8158 0
71.2458 46.5985 0.0283913
72.1653 42.086 0.0267442
74.9194 39.9526 0
75 37.5 2
72.4019 39.802 2
71.7786 44.3517 2
69.7727 41.785 2
70.5705 48.8123 2
68.8502 45.9997 2
72.4862 37.513 3.97399
70.0161 39.6567 3.96782
69.3859 43.899 3.96763
67.346 41.4724 3.97661
68.1812 48.0861 3.96512
66.4282 45.3822 3.97644
74.9197 35.0474 0
74.2794 30.1841 0
72.182 32.9448 0.0266775
71.2749 28.4324 0.0286598
65.694 12.7746 0
65.3163 16.1038 0.0318812
69.8108 24.0586 0.0298453
68.2746 26.9723 0.0359799
66.6673 22.9632 0.0376959
64.5979 19.235 0.0419195
63.6229 22.137 0.033631
72.4097 35.2251 2
71.8001 30.6785 2
69.8091 33.2772 2
68.9117 29.0549 2
64.0165 10.9835 2
63.883 14.3383 2
63.4161 17.4853 2
67.531 24.9379 2
65.9314 27.7069 2
62.657 20.4286 2
64.4841 23.9244 2
61.6703 23.1145 2
60.6803 11.1114 2
57.598 11.4931 2
70.0302 35.3972 3.96734
69.4232 31.1615 3.96602
67.413 33.621 3.97655
66.5139 29.6815 3.97597
65.2583 25.7819 3.97293
63.6823 28.376 3.97542
62.3333 12.661 3.96652
62.4168 24.7977 3.97453
62.162 15.8169 3.9532
61.559 18.8047 3.95962
60.812 21.5222 3.96948
59.8644 23.9644 3.97417
59.233 12.829 3.96229
55.8679 10.2792 3.96948
56.3721 13.2085 3.96146
69.7639 50.9904 0.0297822
62.2254 65.694 0
58.8882 65.4082 0.0270646
67.7772 55.1694 0.030243
66.5459 52.1779 0.0369739
62.3287 62.4223 0.0338708
62.1679 59.3707 0.0474499
64.5546 55.9936 0.0407624
61.5994 56.5735 0.0385928
60.6661 63.964 2
57.0236 66.7243 2
57.5457 63.6471 2
67.4119 50.149 2
65.5935 54.1373 2
64.2431 51.2881 2
60.7484 60.8979 2
62.5716 54.9639 2
60.4406 58.0415 2
59.9826 55.6185 2
55.0654 67.9293 3.9813
59.2093 62.312 3.96921
55.7858 64.853 3.969
56.3055 62.0044 3.9807
65.0359 49.3219 3.97353
63.4221 53.1883 3.96783
61.9532 50.4839 3.97358
59.2092 59.4563 3.9536
60.6808 54.1397 3.97176
58.9113 56.8227 3.9602
58.7926 54.9726 3.97104
48.0967 68.5665 3.9781
50.9438 69.9297 3.98499
54.0858 71.1327 4
56.25 69.976 2
58.3339 68.6801 0
57.0554 8.33715 3.97924
60.3285 7.74928 4
58.9193 9.6695 2
62.2255 9.30602 2
70.571 48.8145 0.0290495
71.7793 44.3532 0.0273646
68.8469 46.0003 0.0334252
69.7709 41.7855 0.032157
72.4026 39.8028 0.0258691
75 37.5 0
72.4848 37.5124 2
70.0185 39.6564 2
69.3871 43.8983 2
67.343 41.4719 2
68.1815 48.0849 2
66.4243 45.3809 2
70.104 37.5239 3.96765
67.5936 39.5024 3.97655
66.957 43.4291 3.97652
65.1248 41.1727 3.97626
65.7758 47.345 3.97538
64.1788 44.7639 3.97571
72.4105 35.2254 0.0258672
71.8009 30.6777 0.0272858
69.8063 33.2769 0.0329538
68.9076 29.0545 0.0349219
64.0165 10.9835 0
63.8812 14.3311 0.0355795
63.4064 17.4889 0.0449996
67.5283 24.9371 0.0366055
65.9339 27.7057 0.0252204
64.485 23.9236 0.0304329
62.6504 20.43 0.0367146
61.6699 23.1134 0.0268648
60.6778 11.106 0.0296512
57.6008 11.5041 0.0369497
70.0327 35.3974 2
69.4262 31.1618 2
67.4107 33.6215 2
66.5106 29.6827 2
62.336 12.6681 2
62.1649 15.8168 2
61.5684 18.8028 2
65.2565 25.783 2
63.6813 28.3764 2
60.8127 21.5234 2
62.4165 24.7988 2
59.8627 23.9666 2
59.2319 12.8259 2
56.3674 13.1993 2
55.8677 10.2839 2
67.6355 35.5645 3.97665
67.0141 31.6675 3.97659
65.2827 33.971 3.97641
64.2036 30.288 3.97563
63.0847 26.5594 3.97463
61.6287 28.9425 3.9751
60.7539 14.2636 3.95488
60.4513 25.5595 3.97436
60.3976 17.2486 3.95589
59.8118 20.0134 3.96451
59.1136 22.5064 3.97206
58.297 24.615 3.97402
54.0374 9.15599 3.98853
57.8392 14.43 3.95187
54.772 12.1096 3.97599
55.2229 14.7888 3.95183
67.4107 50.1501 0.035827
57.0197 66.7298 0.0244269
60.6619 63.9709 0.0298097
57.5412 63.6378 0.0327572
65.5947 54.1383 0.038873
64.2445 51.2888 0.0292487
60.7566 60.897 0.042305
60.4444 58.0422 0.0435157
62.5679 54.9627 0.0345923
59.9849 55.6194 0.0324601
55.0701 67.9239 2
59.2064 62.3172 2
55.7901 64.8481 2
56.302 62.0073 2
65.0336 49.3208 2
63.4222 53.1882 2
61.9523 50.4835 2
59.2347 59.465 2
60.6797 54.1391 2
58.9192 56.8247 2
58.8012 54.9742 2
53.0373 68.9959 3.98195
53.9532 65.9805 3.9699
57.8331 60.7919 3.95226
54.6542 63.1039 3.96555
55.1605 60.515 3.97507
62.6938 48.5117 3.97395
61.2922 52.4026 3.97322
59.6001 49.7805 3.97282
57.7615 58.1013 3.95627
58.8178 53.7228 3.97253
57.5946 55.5649 3.96293
50.1019 67.8442 3.97412
47.4517 66.5565 3.97421
46.0517 69.1475 3.9807
48.101 68.5675 2
48.7978 70.7209 3.98721
50.9489 69.9263 2
51.8506 72.1454 4
54.0858 71.1327 2
56.25 69.9759 0
55.1012 7.14079 3.99266
58.3339 6.31992 4
57.0586 8.34239 2
60.3286 7.74926 2
58.9172 9.6643 0.0291284
62.2254 9.30607 0
68.1812 48.0861 0.034876
69.3859 43.899 0.0323723
66.4282 45.3822 0.0235568
67.346 41.4724 0.0233911
70.0161 39.6567 0.0321836
72.4862 37.513 0.0260055
70.1073 37.5238 2
67.5906 39.5021 2
66.9548 43.4278 2
65.1246 41.1726 2
65.773 47.3438 2
64.1782 44.7637 2
67.6967 37.526 3.9765
65.3668 39.3535 3.97642
64.7293 42.963 3.9761
63.171 40.878 3.97629
63.4669 46.5993 3.97487
62.1645 44.1045 3.97567
70.0302 35.3972 0.0326574
69.4232 31.1615 0.0339763
67.413 33.621 0.0234473
66.5139 29.6815 0.0240323
62.3333 12.661 0.0334761
62.162 15.8169 0.0467984
61.559 18.8047 0.0403778
65.2583 25.7819 0.0270721
63.6823 28.376 0.0245831
62.4168 24.7977 0.0254741
60.812 21.5222 0.0305168
59.8644 23.9644 0.0258259
59.233 12.829 0.0377147
56.3721 13.2085 0.0385385
55.8679 10.2792 0.0305218
67.633 35.5649 2
67.0117 31.6686 2
65.2815 33.9712 2
64.2031 30.2882 2
60.7519 14.2641 2
60.392 17.2498 2
59.8105 20.0151 2
63.0836 26.5603 2
61.6287 28.9424 2
59.1141 22.5082 2
60.4509 25.5599 2
58.2925 24.6175 2
57.8385 14.4188 2
55.2115 14.7711 2
54.0404 9.14956 2
54.7618 12.1036 2
65.4655 35.692 3.97644
64.7413 32.2205 3.97581
63.7537 34.3019 3.97609
61.9548 30.7647 3.97541
61.032 27.2619 3.97461
60.0947 29.3375 3.97551
59.1664 15.7795 3.95417
58.5923 26.0714 3.9747
58.746 18.5575 3.96027
58.1976 21.1173 3.96668
57.6298 23.3962 3.97223
57.2159 24.9917 3.97488
52.1028 8.18512 3.96815
53.058 11.0638 3.97292
56.519 15.9031 3.95631
53.7606 13.7989 3.96111
54.2061 16.1772 3.95617
55.0654 67.9293 0.0186981
65.0359 49.3219 0.0264688
55.7858 64.853 0.030995
59.2093 62.312 0.0307894
56.3055 62.0044 0.0192982
63.4221 53.1883 0.0321708
61.9532 50.4839 0.0264151
59.2092 59.4563 0.0464001
58.9113 56.8227 0.0398031
60.6808 54.1397 0.0282378
58.7926 54.9726 0.0289604
53.0426 68.9925 2
53.9575 65.9794 2
57.8336 60.8006 2
54.6514 63.1017 2
55.1578 60.5137 2
62.6932 48.5112 2
61.2919 52.4022 2
59.6003 49.7802 2
57.7669 58.1039 2
58.8219 53.7229 2
57.5914 55.5629 2
52.0601 66.9789 3.97306
52.9279 64.1397 3.96777
56.5046 59.3567 3.95196
53.6185 61.4746 3.96596
54.156 59.1759 3.9636
[...]
POINT_DATA 3012
SCALARS rho_c_phif_kappa float 4
LOOKUP_TABLE default
1000 0 1.00254 0.275163
1000 0 1.00202 0.275499
1000 0 1.00254 0.275479
1000 0 1.00254 0.275795
1000 0 1.00254 0.275358
1000 0 1.00255 0.275037
1012.31 1.34509e-08 1.00302 0.27273
1000 0 1.00202 0.275477
1000 0 1.00202 0.276569
1000 0 1.00203 0.276077
1000 0 1.00255 0.274932
1012.25 1.31659e-08 1.00328 0.272249
1000 0 1.00253 0.276476
1000 0 1.00253 0.277405
1000 0 1.00254 0.275789
1000 0 1.00254 0.27648
1000 0 1.00255 0.27526
1000 0 1.00254 0.275806
1012.13 1.3499e-08 1.00302 0.272568
1000 0 1.00202 0.276465
1000 0 1.00254 0.275936
1000 0 1.00254 0.275588
1012.27 1.36311e-08 1.00301 0.274745
1012.29 1.3522e-08 1.00302 0.273496
1000 0 1.00255 0.274997
1012.33 1.33842e-08 1.00303 0.271888
1013.87 1.58415e-08 1.00351 0.265593
1000 0 1.00202 0.275475
1000 0 1.00228 0.276064
1000 0 1.00228 0.275629
1000 0 1.00203 0.275528
1012.18 1.32229e-08 1.00328 0.272277
1000 0 1.00254 0.275737
1000 0 1.00254 0.27518
1012.31 1.35499e-08 1.00301 0.272841
1000 0 1.00203 0.276387
1012.24 1.32755e-08 1.00301 0.272239
1012.3 1.31186e-08 1.00328 0.272343
1013.87 1.57547e-08 1.00353 0.263245
1000 0 1.00203 0.276817
1000 0 1.00202 0.276488
1000 0 1.00228 0.276871
1000 0 1.00202 0.276554
1000 0 1.00254 0.277579
1012.23 1.36676e-08 1.00325 0.274973
1000 0 1.00202 0.277204
1012.31 1.37028e-08 1.00301 0.274314
1000 0 1.00253 0.277184
1000 0 1.00254 0.276256
1000 0 1.00255 0.275474
1012.31 1.34509e-08 1.00302 0.272437
1000 0 1.00228 0.276863
1000 0 1.00253 0.276682
1000 0 1.00255 0.27516
1000 0 1.00254 0.276169
1012 1.3674e-08 1.00301 0.274402
1012.21 1.34353e-08 1.00303 0.271726
1012.06 1.35665e-08 1.00302 0.273251
1013.89 1.58363e-08 1.00351 0.265464
1000 0 1.00202 0.276548
1000 0 1.00254 0.276054
1012.21 1.36352e-08 1.00299 0.27543
1012.27 1.36545e-08 1.00301 0.275093
1012.28 1.35859e-08 1.00301 0.274191
1013.84 1.5868e-08 1.0035 0.269234
1013.86 1.58528e-08 1.0035 0.266289
1000 0 1.00256 0.275126
1012.39 1.33303e-08 1.00303 0.271199
1013.88 1.58294e-08 1.00352 0.264172
1013.82 1.58524e-08 1.00351 0.257672
1000 0 1.00202 0.27574
1000 0 1.00203 0.275764
1000 0 1.00202 0.275462
1012.25 1.31659e-08 1.00328 0.272302
1000 0 1.00202 0.275956
1000 0 1.00202 0.275578
1012.09 1.35944e-08 1.00327 0.273072
1000 0 1.00229 0.2759
1012.12 1.33276e-08 1.00327 0.272389
1012.29 1.31833e-08 1.00315 0.272296
1013.88 1.57559e-08 1.00353 0.263281
1000 0 1.00203 0.276317
1012.64 1.31876e-08 1.00333 0.273715
1012.33 1.36439e-08 1.00327 0.273576
1012.28 1.34171e-08 1.00327 0.272654
1013.86 1.58613e-08 1.00352 0.266066
1012.39 1.31086e-08 1.00304 0.272429
1013.86 1.57899e-08 1.00352 0.263787
1013.9 1.57432e-08 1.00354 0.263817
1013.85 1.58807e-08 1.00351 0.256633
1000 0 1.00203 0.277251
1000 0 1.00203 0.277068
1000 0 1.00202 0.27625
1000 0 1.00202 0.276464
1000 0 1.00202 0.276534
1000 0 1.00228 0.276992
1011.88 1.37076e-08 1.00313 0.274904
1000 0 1.00228 0.276655
1012.06 1.37455e-08 1.00313 0.274551
1000 0 1.00202 0.276552
1012.22 1.36401e-08 1.00325 0.275203
1012.3 1.36904e-08 1.003 0.274567
1013.82 1.58626e-08 1.00351 0.271304
1012.33 1.36933e-08 1.003 0.274013
1013.85 1.58825e-08 1.00351 0.270321
1000 0 1.00253 0.276434
1000 0 1.00253 0.277462
1000 0 1.00255 0.275313
1000 0 1.00253 0.276753
1012.27 1.36311e-08 1.00301 0.27407
1012.29 1.3522e-08 1.00302 0.273019
1012.33 1.33842e-08 1.00303 0.271431
1013.87 1.58415e-08 1.00351 0.265303
1000 0 1.00202 0.276516
1000 0 1.00254 0.276796
1011.87 1.3676e-08 1.00313 0.274987
1012 1.36978e-08 1.00301 0.274758
1000 0 1.00229 0.275096
1012.32 1.33893e-08 1.00303 0.271459
1012.03 1.36291e-08 1.00301 0.273878
1013.87 1.58605e-08 1.0035 0.269146
1013.89 1.5828e-08 1.00352 0.2637
1013.88 1.58465e-08 1.00351 0.266471
1013.82 1.5854e-08 1.00351 0.257699
1012.19 1.36253e-08 1.00325 0.27523
1012.26 1.36537e-08 1.00301 0.275243
1013.82 1.5853e-08 1.00349 0.271128
1013.84 1.5869e-08 1.0035 0.270015
1013.85 1.58627e-08 1.0035 0.267751
1013.8 1.58338e-08 1.0035 0.264026
1000 0 1.00203 0.275875
1013.81 1.58424e-08 1.0035 0.259055
1012.45 1.32961e-08 1.0033 0.271659
1013.9 1.58192e-08 1.00353 0.262047
1013.83 1.5866e-08 1.00351 0.256406
1013.74 1.57647e-08 1.0035 0.254457
1012.59 1.32778e-08 1.00332 0.272472
1014.06 1.58794e-08 1.00355 0.269323
1000 0 1.00202 0.275933
1000 0 1.00202 0.275572
1012.31 1.35499e-08 1.00327 0.273084
1000 0 1.00203 0.276197
1012.3 1.31186e-08 1.00329 0.272285
1012.24 1.32755e-08 1.00327 0.272419
1013.87 1.57547e-08 1.00353 0.263348
1000 0 1.00203 0.276531
1012.72 1.32403e-08 1.00333 0.27399
1012.09 1.36863e-08 1.00314 0.273481
1012.09 1.34648e-08 1.00314 0.272563
1013.88 1.58551e-08 1.00352 0.266081
1012.39 1.31796e-08 1.0033 0.272417
1013.87 1.57888e-08 1.00352 0.263904
1013.91 1.57433e-08 1.00353 0.264107
1013.85 1.58833e-08 1.00351 0.256256
1012.48 1.31434e-08 1.00331 0.272883
1012.75 1.32355e-08 1.00334 0.274621
1014.08 1.58575e-08 1.00356 0.271477
1013.86 1.58803e-08 1.00351 0.267499
1013.86 1.58296e-08 1.00352 0.264877
1013.8 1.58274e-08 1.0035 0.258822
1013.96 1.57789e-08 1.00354 0.265909
1013.83 1.58603e-08 1.00351 0.255666
1013.85 1.58939e-08 1.00352 0.256455
1013.78 1.58065e-08 1.00351 0.25393
1000 0 1.00203 0.277496
1000 0 1.00203 0.27738
1000 0 1.00203 0.277228
1012.71 1.33004e-08 1.00333 0.273551
1000 0 1.00203 0.276352
1000 0 1.00202 0.276111
1000 0 1.00202 0.276376
1012.31 1.37028e-08 1.00326 0.274824
1012.23 1.36676e-08 1.00325 0.275213
1000 0 1.00202 0.276552
1000 0 1.00202 0.276558
1012.1 1.36776e-08 1.00325 0.275224
1012.19 1.37298e-08 1.00313 0.27481
1013.86 1.58557e-08 1.00351 0.271312
1012.05 1.37351e-08 1.00326 0.274312
1013.88 1.58742e-08 1.00351 0.27025
1012.17 1.36184e-08 1.00325 0.27523
1013.82 1.58516e-08 1.00351 0.271642
1013.85 1.58718e-08 1.00351 0.270904
1013.8 1.58312e-08 1.0035 0.268268
1013.85 1.58861e-08 1.00351 0.269047
1013.8 1.58301e-08 1.0035 0.265589
1000 0 1.00202 0.276537
1000 0 1.00253 0.277594
1012.21 1.36352e-08 1.00326 0.274956
1012.27 1.36545e-08 1.00301 0.274431
1000 0 1.00203 0.275805
1012.39 1.33303e-08 1.00303 0.27178
1012.28 1.35859e-08 1.00301 0.273578
1013.84 1.5868e-08 1.0035 0.269037
1013.86 1.58528e-08 1.00351 0.266639
1013.88 1.58294e-08 1.00352 0.263396
1013.82 1.58524e-08 1.00351 0.257734
1012.05 1.36629e-08 1.00325 0.27522
1012.16 1.36938e-08 1.00301 0.274941
1013.86 1.58462e-08 1.0035 0.270992
1013.87 1.5861e-08 1.0035 0.270117
1000 0 1.00203 0.275718
1012.42 1.33649e-08 1.00317 0.271843
1013.91 1.5815e-08 1.00353 0.262271
1013.87 1.58556e-08 1.0035 0.267658
1013.8 1.58347e-08 1.0035 0.263693
1013.83 1.58663e-08 1.00351 0.256454
1013.81 1.58436e-08 1.00351 0.259327
1013.74 1.57645e-08 1.0035 0.254504
1012.64 1.33332e-08 1.00332 0.27242
1014.05 1.58676e-08 1.00355 0.269302
1013.82 1.58476e-08 1.00351 0.271647
1013.84 1.58635e-08 1.0035 0.270569
1013.81 1.58355e-08 1.0035 0.268032
1013.8 1.5832e-08 1.0035 0.265076
1013.8 1.58369e-08 1.0035 0.261332
1013.73 1.57481e-08 1.00349 0.260637
1012.51 1.32754e-08 1.00331 0.271784
1013.73 1.57555e-08 1.00349 0.255957
1013.94 1.58165e-08 1.00354 0.263469
1013.83 1.58738e-08 1.00351 0.254623
1013.75 1.57786e-08 1.0035 0.253385
1013.72 1.57449e-08 1.00349 0.253225
1014.02 1.58537e-08 1.00355 0.267663
1014.1 1.59174e-08 1.00356 0.270822
1013.93 1.59946e-08 1.00353 0.265706
1012.33 1.36439e-08 1.00327 0.273663
1000 0 1.00203 0.276838
1012.64 1.31876e-08 1.00333 0.274411
1012.28 1.34171e-08 1.00327 0.272664
1013.86 1.58613e-08 1.00352 0.266098
1012.39 1.31086e-08 1.0033 0.272339
1013.9 1.57432e-08 1.00353 0.264343
1013.86 1.57899e-08 1.00352 0.264057
1013.85 1.58807e-08 1.00351 0.255855
1012.56 1.3196e-08 1.00331 0.273046
1012.84 1.32801e-08 1.00334 0.274949
1014.07 1.58479e-08 1.00356 0.271584
1013.88 1.58736e-08 1.00351 0.267503
1013.88 1.58253e-08 1.00352 0.264948
1013.8 1.5829e-08 1.0035 0.258801
1013.97 1.57782e-08 1.00354 0.266378
1013.83 1.58615e-08 1.00351 0.255875
1013.85 1.58938e-08 1.00352 0.256375
1013.78 1.58071e-08 1.00351 0.25345
1012.9 1.32884e-08 1.00335 0.275405
1014.02 1.58212e-08 1.00355 0.269376
1014.11 1.58848e-08 1.00356 0.272683
1013.95 1.60208e-08 1.00354 0.268421
1013.79 1.58159e-08 1.0035 0.26073
1013.81 1.58429e-08 1.00351 0.257063
1013.73 1.57691e-08 1.00349 0.255295
1013.88 1.59221e-08 1.00353 0.259113
1013.75 1.57742e-08 1.0035 0.251447
1013.77 1.58014e-08 1.00351 0.252572
1013.76 1.57967e-08 1.0035 0.252845
1014.16 1.59459e-08 1.00356 0.276031
1013.1 1.33795e-08 1.00337 0.275863
1000 0 1.00203 0.277605
1000 0 1.00203 0.27758
1000 0 1.00203 0.277505
1012.82 1.33514e-08 1.00335 0.274249
1000 0 1.00203 0.27679
1012.79 1.3356e-08 1.00333 0.273189
1000 0 1.00203 0.276165
1012.33 1.36933e-08 1.00326 0.274306
1012.3 1.36904e-08 1.00326 0.275092
1013.85 1.58825e-08 1.00351 0.270174
1013.82 1.58626e-08 1.00351 0.271287
1012.22 1.36401e-08 1.00325 0.275248
1000 0 1.00202 0.27655
1011.76 1.3659e-08 1.00325 0.275224
1013.82 1.58454e-08 1.00351 0.271639
1013.85 1.58651e-08 1.00351 0.27086
1013.8 1.58319e-08 1.0035 0.268248
1013.88 1.58794e-08 1.00351 0.269049
1013.8 1.58311e-08 1.0035 0.265658
1013.8 1.58465e-08 1.00351 0.271753
1013.8 1.58269e-08 1.0035 0.268758
1013.8 1.58325e-08 1.0035 0.267384
1013.74 1.57764e-08 1.00349 0.266308
1013.8 1.58241e-08 1.0035 0.263258
1013.73 1.5761e-08 1.00349 0.263332
1012.19 1.36253e-08 1.00325 0.275199
1012.26 1.36537e-08 1.00301 0.274589
1013.82 1.5853e-08 1.00351 0.270879
1013.84 1.5869e-08 1.0035 0.270167
1000 0 1.00203 0.275537
1012.45 1.32961e-08 1.00304 0.271649
1013.9 1.58192e-08 1.00353 0.262534
1013.85 1.58627e-08 1.0035 0.267544
1013.8 1.58338e-08 1.0035 0.263365
1013.81 1.58424e-08 1.00351 0.259601
1013.83 1.5866e-08 1.00351 0.256464
1013.74 1.57647e-08 1.0035 0.254533
1012.59 1.32778e-08 1.00332 0.272318
1014.06 1.58794e-08 1.00355 0.268935
1013.82 1.58415e-08 1.00351 0.27148
1013.84 1.58568e-08 1.0035 0.270611
1013.8 1.58362e-08 1.0035 0.267931
1013.8 1.5833e-08 1.0035 0.265384
1012.51 1.33398e-08 1.00331 0.271876
1013.95 1.58091e-08 1.00354 0.263181
1013.84 1.58772e-08 1.00351 0.25469
1013.8 1.5838e-08 1.0035 0.261486
1013.73 1.57478e-08 1.00349 0.26032
1013.75 1.57789e-08 1.0035 0.253196
1013.73 1.57553e-08 1.00349 0.255986
1013.72 1.57447e-08 1.00349 0.252955
1014.02 1.58527e-08 1.00355 0.267767
1013.93 1.59937e-08 1.00353 0.265571
1014.09 1.59187e-08 1.00356 0.27074
1013.8 1.5831e-08 1.0035 0.268883
1013.8 1.58319e-08 1.0035 0.266679
1013.74 1.57679e-08 1.00349 0.266319
1013.73 1.57491e-08 1.00349 0.26222
1013.73 1.57488e-08 1.00349 0.25753
1013.71 1.57265e-08 1.00349 0.257919
1013.98 1.58349e-08 1.00354 0.265943
1013.71 1.57335e-08 1.00349 0.2537
1013.85 1.58911e-08 1.00352 0.255136
1013.76 1.57825e-08 1.0035 0.249802
1013.73 1.57631e-08 1.0035 0.251503
1013.7 1.56909e-08 1.00349 0.251
1014.13 1.5936e-08 1.00356 0.272734
1013.9 1.59601e-08 1.00353 0.262244
1013.95 1.60271e-08 1.00354 0.269179
1013.86 1.59086e-08 1.00353 0.261671
1013.86 1.58803e-08 1.00351 0.267512
1012.75 1.32355e-08 1.00334 0.275143
1012.48 1.31434e-08 1.00331 0.273231
1014.08 1.58575e-08 1.00355 0.271679
1013.86 1.58296e-08 1.00352 0.265011
1013.8 1.58274e-08 1.0035 0.258779
1013.96 1.57789e-08 1.00354 0.266963
1013.85 1.58939e-08 1.00352 0.256384
1013.83 1.58603e-08 1.00351 0.256071
1013.78 1.58065e-08 1.0035 0.253044
1012.93 1.33261e-08 1.00335 0.275581
1014.02 1.58201e-08 1.00355 0.269654
1014.09 1.5882e-08 1.00356 0.272797
1013.96 1.60237e-08 1.00354 0.268605
1013.79 1.58163e-08 1.0035 0.260714
1013.81 1.58446e-08 1.00351 0.257052
1013.73 1.57681e-08 1.00349 0.255297
1013.88 1.59253e-08 1.00353 0.259123
1013.75 1.57749e-08 1.0035 0.251764
1013.77 1.58021e-08 1.00351 0.252306
1013.76 1.57977e-08 1.0035 0.253556
1012.99 1.33337e-08 1.00336 0.275738
1014.13 1.58965e-08 1.00356 0.274025
1013.92 1.59745e-08 1.00353 0.263731
1013.96 1.60363e-08 1.00354 0.27087
1013.89 1.59417e-08 1.00353 0.264663
1013.73 1.57941e-08 1.00349 0.257162
1013.74 1.5757e-08 1.0035 0.252798
1013.7 1.57444e-08 1.00349 0.251974
1013.79 1.58157e-08 1.00351 0.251932
1013.74 1.5791e-08 1.0035 0.248799
1013.74 1.57947e-08 1.0035 0.249918
1014.15 1.59251e-08 1.00356 0.275762
1013.97 1.6074e-08 1.00354 0.274649
1014.17 1.59691e-08 1.00356 0.276401
1014.16 1.5946e-08 1.00356 0.276114
1013.19 1.34332e-08 1.0031 0.276295
1013.12 1.34084e-08 1.00323 0.276256
1000 0 1.0026 0.276918
1000 0 1.00203 0.277624
1000 0 1.00203 0.277604
1012.99 1.34273e-08 1.00336 0.275102
1000 0 1.00203 0.277284
1012.92 1.33998e-08 1.00335 0.274105
1000 0 1.00203 0.276612
1012.71 1.33004e-08 1.00333 0.273018
1000 0 1.00203 0.275999
1013.85 1.58861e-08 1.00351 0.269043
1013.85 1.58718e-08 1.00351 0.270854
1013.8 1.58301e-08 1.0035 0.26563
1013.8 1.58312e-08 1.0035 0.268234
1013.82 1.58516e-08 1.00351 0.27163
1012.17 1.36184e-08 1.00325 0.275208
1013.84 1.58395e-08 1.00351 0.271754
1013.8 1.58276e-08 1.0035 0.268756
1013.8 1.58333e-08 1.0035 0.267258
1013.74 1.57763e-08 1.00349 0.266254
1013.79 1.5825e-08 1.0035 0.263225
1013.73 1.57609e-08 1.00349 0.263309
1013.8 1.58259e-08 1.0035 0.268897
1013.74 1.57906e-08 1.00349 0.267081
1013.74 1.5767e-08 1.00349 0.265494
1013.72 1.57669e-08 1.00349 0.265541
1013.73 1.57583e-08 1.00349 0.259601
1013.72 1.57321e-08 1.00349 0.26089
1013.82 1.58476e-08 1.0035 0.271325
1013.84 1.58635e-08 1.0035 0.270742
1013.81 1.58355e-08 1.0035 0.267748
1013.8 1.5832e-08 1.0035 0.265726
1012.51 1.32754e-08 1.00331 0.27198
1013.94 1.58165e-08 1.00354 0.262749
1013.83 1.58738e-08 1.00351 0.25473
1013.8 1.58369e-08 1.00351 0.261651
1013.73 1.57481e-08 1.00349 0.259999
1013.73 1.57555e-08 1.00349 0.256014
1013.75 1.57786e-08 1.0035 0.253057
1013.72 1.57449e-08 1.00349 0.252763
1014.02 1.58537e-08 1.00355 0.267946
1013.93 1.59946e-08 1.00353 0.265734
1014.1 1.59174e-08 1.00356 0.270888
1013.8 1.58317e-08 1.0035 0.268749
1013.8 1.58328e-08 1.0035 0.266799
1013.74 1.57676e-08 1.00349 0.266104
1013.73 1.57488e-08 1.00349 0.262514
1013.99 1.58324e-08 1.00354 0.265494
1013.85 1.58927e-08 1.00352 0.25491
1013.76 1.57833e-08 1.0035 0.250009
1013.73 1.57485e-08 1.00349 0.257862
1013.71 1.57266e-08 1.00349 0.257648
1013.73 1.57631e-08 1.0035 0.251296
1013.71 1.57336e-08 1.00349 0.253708
1013.7 1.56905e-08 1.00349 0.251302
1013.9 1.59627e-08 1.00353 0.261891
1013.86 1.59087e-08 1.00353 0.261662
1014.12 1.59332e-08 1.00356 0.272656
1013.95 1.60276e-08 1.00354 0.269963
1013.75 1.57894e-08 1.00349 0.267011
1013.73 1.57576e-08 1.00349 0.264647
1013.72 1.57341e-08 1.00349 0.265472
1013.71 1.57393e-08 1.00348 0.259588
1013.71 1.57403e-08 1.00349 0.255366
1013.71 1.57067e-08 1.00348 0.255996
1013.87 1.59236e-08 1.00352 0.257972
1013.7 1.56866e-08 1.00348 0.250963
1013.76 1.57863e-08 1.00351 0.24849
1013.74 1.57786e-08 1.0035 0.246911
1013.71 1.56902e-08 1.00349 0.250126
1013.68 1.56181e-08 1.00349 0.249679
1014.14 1.59541e-08 1.00356 0.2736
1013.95 1.60332e-08 1.00354 0.270556
1013.82 1.58625e-08 1.00352 0.257055
1013.9 1.5952e-08 1.00353 0.266398
1013.84 1.58741e-08 1.00352 0.257613
1012.9 1.32884e-08 1.00335 0.275831
1013.79 1.58159e-08 1.0035 0.26071
1014.11 1.58848e-08 1.00356 0.272843
1014.02 1.58212e-08 1.00355 0.269938
1013.95 1.60208e-08 1.00354 0.268911
1013.81 1.58429e-08 1.00351 0.257032
1013.73 1.57691e-08 1.00349 0.255296
1013.88 1.59221e-08 1.00353 0.259054
1013.77 1.58014e-08 1.00351 0.251743
1013.75 1.57742e-08 1.0035 0.252121
1013.76 1.57967e-08 1.0035 0.253931
1013.03 1.33629e-08 1.00336 0.275848
1014.12 1.58962e-08 1.00356 0.274372
1013.92 1.59748e-08 1.00353 0.264362
1013.96 1.60378e-08 1.00354 0.271194
1013.89 1.59425e-08 1.00353 0.263898
1013.73 1.57982e-08 1.00349 0.25711
1013.74 1.57565e-08 1.0035 0.252815
1013.7 1.57485e-08 1.00349 0.25194
1013.79 1.58179e-08 1.00351 0.252011
1013.74 1.57902e-08 1.0035 0.249177
1013.74 1.57953e-08 1.0035 0.249741
1014.14 1.59112e-08 1.00356 0.275139
1013.97 1.60587e-08 1.00355 0.271871
1013.84 1.5878e-08 1.00352 0.257348
1013.91 1.59672e-08 1.00354 0.268042
1013.86 1.5912e-08 1.00353 0.259809
1013.68 1.55959e-08 1.00349 0.254816
1013.73 1.58215e-08 1.00349 0.249169
1013.61 1.51487e-08 1.00348 0.248504
1013.76 1.58141e-08 1.00351 0.246944
1013.71 1.5732e-08 1.00349 0.246583
1014.14 1.5926e-08 1.00356 0.275797
1013.97 1.60685e-08 1.00354 0.274451
1013.97 1.60742e-08 1.00354 0.274672
1013.95 1.60213e-08 1.00355 0.273108
1013.97 1.60809e-08 1.00355 0.274828
1014.18 1.59925e-08 1.00356 0.276544
1014.17 1.59664e-08 1.00356 0.276349
1013.29 1.34971e-08 1.00311 0.276381
1014.16 1.59459e-08 1.00356 0.276097
1013.2 1.34499e-08 1.0031 0.276562
1000 0 1.0026 0.276872
1013.1 1.33795e-08 1.00309 0.276499
1000 0 1.00232 0.277009
1000 0 1.00203 0.277678
1013.12 1.35022e-08 1.00337 0.275749
1013.06 1.34517e-08 1.00336 0.27485
1000 0 1.00204 0.277525
1000 0 1.00203 0.277035
1012.82 1.33514e-08 1.00335 0.273789
1000 0 1.00203 0.27643
1013.8 1.58241e-08 1.0035 0.263184
1013.8 1.58325e-08 1.0035 0.26723
1013.73 1.5761e-08 1.00349 0.263312
1013.74 1.57764e-08 1.00349 0.2662
1013.8 1.58269e-08 1.0035 0.268755
1013.8 1.58465e-08 1.00351 0.271746
1013.8 1.5827e-08 1.0035 0.268899
1013.74 1.57901e-08 1.00349 0.267117
1013.74 1.57664e-08 1.00349 0.265474
1013.72 1.57664e-08 1.00349 0.265404
1013.73 1.57577e-08 1.00349 0.259563
1013.72 1.57316e-08 1.00349 0.261046
1013.75 1.57952e-08 1.00349 0.267325
1013.73 1.58186e-08 1.00349 0.26637
1013.72 1.57712e-08 1.00349 0.263969
1013.65 1.5427e-08 1.00348 0.2647
1013.71 1.57376e-08 1.00349 0.258131
1013.7 1.56502e-08 1.00348 0.260145
1013.8 1.5831e-08 1.0035 0.268627
1013.8 1.58319e-08 1.0035 0.266777
1013.74 1.57679e-08 1.00349 0.265933
1013.73 1.57491e-08 1.00349 0.262814
1013.98 1.58349e-08 1.00354 0.265133
1013.85 1.58911e-08 1.00352 0.254789
1013.76 1.57825e-08 1.0035 0.250193
1013.73 1.57488e-08 1.00349 0.258189
1013.71 1.57265e-08 1.00349 0.257393
1013.71 1.57335e-08 1.00349 0.253722
1013.73 1.57631e-08 1.00349 0.250893
1013.7 1.56909e-08 1.00349 0.251345
1013.9 1.59601e-08 1.00353 0.261334
1013.86 1.59086e-08 1.00353 0.26157
1014.13 1.5936e-08 1.00356 0.272523
1013.95 1.60271e-08 1.00354 0.269924
1013.74 1.57889e-08 1.00349 0.267014
1013.73 1.57572e-08 1.00349 0.264564
1013.72 1.5734e-08 1.00349 0.265396
1013.71 1.57393e-08 1.00349 0.259765
1013.88 1.59253e-08 1.00352 0.258112
1013.76 1.5786e-08 1.00351 0.248798
1013.74 1.57784e-08 1.0035 0.246483
1013.71 1.57403e-08 1.00349 0.255571
1013.7 1.57064e-08 1.00348 0.255934
1013.71 1.56894e-08 1.00349 0.249747
1013.7 1.56867e-08 1.00348 0.250917
1013.68 1.56172e-08 1.00348 0.249817
1013.83 1.58669e-08 1.00352 0.256736
1013.84 1.58746e-08 1.00352 0.257077
1013.9 1.59556e-08 1.00353 0.266511
1014.14 1.59583e-08 1.00356 0.2737
1013.95 1.60355e-08 1.00354 0.270481
1013.72 1.57922e-08 1.00349 0.26608
1013.72 1.57337e-08 1.00349 0.263602
1013.69 1.56481e-08 1.00348 0.256628
1013.67 1.55919e-08 1.00348 0.253321
1013.79 1.5816e-08 1.00351 0.251984
1013.7 1.56496e-08 1.00348 0.246605
1013.74 1.57871e-08 1.0035 0.243889
1013.69 1.56736e-08 1.00349 0.243365
1013.66 1.54739e-08 1.00349 0.248741
1014.17 1.59896e-08 1.00356 0.274719
1013.95 1.60399e-08 1.00355 0.270828
1013.91 1.5979e-08 1.00354 0.269081
1013.8 1.58441e-08 1.00352 0.252838
1013.88 1.59206e-08 1.00353 0.2613
1013.82 1.58373e-08 1.00352 0.253857
1012.99 1.33337e-08 1.00336 0.275923
1014.13 1.58965e-08 1.00356 0.274661
1013.73 1.57941e-08 1.00349 0.257054
1013.96 1.60363e-08 1.00354 0.27173
1013.92 1.59745e-08 1.00353 0.264905
1013.89 1.59417e-08 1.00353 0.263134
1013.74 1.5757e-08 1.0035 0.252838
1013.7 1.57444e-08 1.00349 0.251912
1013.79 1.58157e-08 1.00352 0.252202
1013.74 1.57947e-08 1.0035 0.249877
1013.74 1.5791e-08 1.0035 0.249526
1014.13 1.59119e-08 1.00356 0.275261
1013.97 1.60602e-08 1.00354 0.272704
1013.84 1.58789e-08 1.00352 0.25731
1013.91 1.59692e-08 1.00354 0.268127
1013.87 1.59188e-08 1.00353 0.259554
1013.69 1.55754e-08 1.00349 0.2548
1013.73 1.5825e-08 1.00349 0.249189
1013.62 1.51291e-08 1.00348 0.248451
1013.76 1.58155e-08 1.00351 0.246704
1013.71 1.57348e-08 1.00349 0.245974
1013.97 1.60627e-08 1.00354 0.273783
1013.94 1.59995e-08 1.00354 0.270326