# vtk DataFile Version 2.0
Wound Healing Simulation
ASCII
DATASET UNSTRUCTURED_GRID
POINTS 3012 float
69.9759 18.75 4
67.2507 60.3285 4
69.976 18.75 2
73.0099 25.446 4
71.1327 20.9142 4
68.6801 16.6661 4
67.8266 19.926 3.98479
67.2507 60.3286 2
71.1327 54.0858 4
68.6801 58.3339 4
65.6939 62.2254 4
65.3134 59.0024 3.98591
74.6784 42.3946 4
73.7221 47.2057 4
69.9759 18.75 0
73.0099 25.446 2
68.6801 16.6661 2
71.1327 20.9142 2
67.8271 19.9286 2
74.6792 32.6053 4
73.7222 27.7943 4
72.1454 23.1494 4
70.615 26.2214 3.98465
68.8867 21.9585 3.98491
67.2507 14.6715 4
66.6383 17.971 3.98529
65.7994 21.0246 3.97721
67.2507 60.3285 0
71.1327 54.0858 2
68.6801 58.3339 2
65.694 62.2255 2
65.3145 59.0004 2
72.1454 51.8506 4
69.9759 56.25 4
68.8372 53.1128 3.984
64.0165 64.0165 4
66.6118 57.1346 3.98544
63.8869 60.7672 3.98765
63.5029 57.7745 3.97973
60.3285 67.2507 4
74.6792 42.3947 2
73.7222 47.2057 2
74.9194 39.9526 4
74.2788 44.8158 4
72.1686 42.0857 3.98275
73.0099 49.554 4
71.25 46.5982 3.98366
73.0099 25.446 0
71.1327 20.9142 0
68.6801 16.6661 0
67.8266 19.926 0.0152147
74.6792 32.6053 2
73.7222 27.7943 2
67.2508 14.6715 2
72.1455 23.1494 2
70.6151 26.222 2
66.6392 17.9734 2
68.887 21.9605 2
65.7991 21.0246 2
74.9197 35.0474 4
74.2794 30.1841 4
72.1853 32.9433 3.98319
71.279 28.4315 3.98419
69.8165 24.0603 3.98485
68.3488 26.9511 3.97547
66.7645 22.9331 3.97626
65.694 12.7746 4
65.325 16.102 3.98672
64.7166 19.1929 3.9787
63.8892 22.0344 3.97308
71.1327 54.0858 0
65.6939 62.2254 0
68.6801 58.3339 0
65.3134 59.0024 0.0140896
72.1455 51.8506 2
69.9759 56.25 2
68.8375 53.1107 2
64.0165 64.0165 2
66.6127 57.1319 2
63.888 60.7661 2
63.5031 57.7753 2
62.2254 65.694 4
58.8952 65.4149 3.99233
69.7697 50.9886 3.984
67.7846 55.1675 3.98446
66.6509 52.2096 3.97513
62.3372 62.4285 3.98975
64.6635 56.0335 3.97898
62.205 59.4079 3.98101
61.826 56.6848 3.97593
58.3339 68.6801 4
60.3285 67.2508 2
73.7221 47.2057 0
74.6784 42.3946 0
74.9197 39.9526 2
74.2794 44.8159 2
72.1684 42.0857 2
73.0099 49.554 2
71.2501 46.5978 2
75 37.5 4
72.4058 39.8023 3.9827
71.7832 44.3531 3.98337
69.805 41.79 3.97344
70.5758 48.8134 3.98375
68.914 46.0155 3.97448
74.6792 32.6053 0
73.7222 27.7943 0
67.2507 14.6715 0
72.1454 23.1494 0
70.615 26.2214 0.0153461
68.8867 21.9585 0.0150861
66.6383 17.971 0.0147136
65.7994 21.0246 0.0227917
74.9197 35.0474 2
74.2794 30.1841 2
72.185 32.9434 2
71.279 28.4317 2
65.694 12.7745 2
65.3261 16.1035 2
69.8166 24.0615 2
68.3488 26.9514 2
64.7165 19.1924 2
66.7642 22.9333 2
63.8889 22.0341 2
72.4136 35.2242 3.98269
71.8045 30.6763 3.9835
69.8411 33.268 3.9741
68.9681 29.0377 3.9752
67.6131 24.9119 3.97562
66.1966 27.6337 3.97202
64.0165 10.9835 4
64.7584 23.8295 3.97251
63.8913 14.3256 3.98831
63.5162 17.4434 3.98094
62.9098 20.3183 3.97409
62.0938 22.9427 3.97093
60.6847 11.0965 3.99052
57.6131 11.4437 3.98461
72.1454 51.8506 0
69.9759 56.25 0
68.8372 53.1128 0.0159974
64.0165 64.0165 0
63.8869 60.7672 0.0123464
66.6118 57.1346 0.0145608
63.5029 57.7745 0.0202685
62.2255 65.694 2
58.8957 65.4148 2
69.7699 50.9872 2
67.7852 55.1648 2
66.6507 52.2092 2
62.3381 62.4279 2
64.6634 56.034 2
62.2051 59.4089 2
61.8262 56.6858 2
60.6697 63.9779 3.99122
57.0259 66.7357 3.99298
57.559 63.6947 3.98638
67.5089 50.1771 3.97453
65.7038 54.1741 3.97642
64.5385 51.386 3.97101
60.7746 60.9414 3.98273
62.8231 55.0706 3.97545
60.6608 58.164 3.97688
60.3303 55.7891 3.975
56.25 69.9759 4
58.3339 68.6801 2
60.3285 67.2507 0
58.9219 9.65483 3.99143
62.2254 9.30607 4
73.0099 49.554 0
74.2788 44.8158 0
71.25 46.5982 0.0163448
72.1686 42.0857 0.0172488
74.9194 39.9526 0
75 37.5 2
72.4057 39.8024 2
71.7831 44.3527 2
69.8048 41.7898 2
70.5759 48.8127 2
68.914 46.0152 2
72.4891 37.5121 3.98248
70.0419 39.6575 3.97313
69.4319 43.9081 3.97416
67.5981 41.4981 3.96998
68.2674 48.1077 3.97422
66.7117 45.441 3.97107
74.9197 35.0474 0
74.2794 30.1841 0
72.1853 32.9433 0.0168147
71.279 28.4315 0.0158077
65.694 12.7746 0
65.325 16.102 0.01328
69.8165 24.0603 0.0151517
68.3488 26.9511 0.0245293
66.7645 22.9331 0.023736
64.7166 19.1929 0.0213027
63.8892 22.0344 0.0269215
72.4135 35.2241 2
71.8045 30.6765 2
69.8409 33.2682 2
68.9682 29.0379 2
64.0165 10.9835 2
63.8922 14.3266 2
63.5164 17.4424 2
67.6129 24.9122 2
66.1965 27.6337 2
62.9099 20.3175 2
64.7581 23.8294 2
62.0936 22.9425 2
60.6854 11.097 2
57.6132 11.443 2
70.0585 35.3918 3.97322
69.4684 31.1491 3.97429
67.6566 33.5904 3.97066
66.7743 29.6217 3.97132
65.5257 25.6987 3.97209
64.1481 28.2544 3.97102
62.3426 12.6537 3.98946
62.8577 24.6368 3.97109
62.2014 15.7807 3.98252
61.8171 18.6808 3.97651
61.2191 21.3403 3.97119
60.4248 23.7276 3.97056
59.2472 12.7753 3.98309
55.8749 10.2304 3.98614
56.406 13.1087 3.98128
69.7697 50.9886 0.0159952
62.2254 65.694 0
58.8952 65.4149 0.00767261
67.7846 55.1675 0.0155442
66.6509 52.2096 0.024874
62.3372 62.4285 0.010251
62.205 59.4079 0.018993
64.6635 56.0335 0.0210197
61.826 56.6848 0.0240718
60.6703 63.9775 2
57.0263 66.7358 2
57.5591 63.6958 2
67.5088 50.1767 2
65.7036 54.174 2
64.5383 51.386 2
60.7748 60.9426 2
62.8231 55.0714 2
60.661 58.1651 2
60.3306 55.7898 2
55.0714 67.9327 3.99322
59.2204 62.3694 3.98389
55.8058 64.9126 3.98854
56.328 62.0946 3.98256
65.3328 49.4091 3.97054
63.7072 53.2933 3.97178
62.4411 50.6528 3.96911
59.3351 59.5618 3.97976
61.0788 54.3116 3.97428
59.2911 57.0162 3.97357
59.2438 55.1851 3.97642
48.1038 68.5803 3.98953
50.9489 69.9323 3.99347
54.0858 71.1327 4
56.25 69.976 2
58.3339 68.6801 0
57.0592 8.33495 3.99176
60.3285 7.74928 4
58.9225 9.65513 2
62.2255 9.30602 2
70.5758 48.8134 0.0162546
71.7832 44.3531 0.016629
68.914 46.0155 0.0255217
69.805 41.79 0.0265614
72.4058 39.8023 0.0173023
75 37.5 0
72.4889 37.5121 2
70.0419 39.6574 2
69.4318 43.9079 2
67.5979 41.498 2
68.2673 48.1072 2
66.7116 45.4409 2
70.1299 37.5215 3.97316
67.835 39.5125 3.96975
67.2252 43.4708 3.97055
65.5562 41.2104 3.96985
66.0699 47.4189 3.97061
64.654 44.8494 3.97028
72.4136 35.2242 0.0173147
71.8045 30.6763 0.0164954
69.8411 33.268 0.0259046
68.9681 29.0377 0.0248037
64.0165 10.9835 0
63.8913 14.3256 0.0116917
63.5162 17.4434 0.0190557
67.6131 24.9119 0.0243779
66.1966 27.6337 0.0279834
64.7584 23.8295 0.0274921
62.9098 20.3183 0.025912
62.0938 22.9427 0.0290685
60.6847 11.0965 0.0094827
57.6131 11.4437 0.0153902
70.0585 35.3919 2
69.4685 31.1493 2
67.6564 33.5904 2
66.7743 29.6217 2
62.3433 12.6544 2
62.2014 15.7798 2
61.8173 18.6796 2
65.5255 25.6986 2
64.148 28.2543 2
61.2192 21.3398 2
62.8575 24.6367 2
60.4247 23.7275 2
59.2473 12.7747 2
56.4059 13.1077 2
55.8751 10.2296 2
67.871 35.5472 3.96993
67.2664 31.6217 3.97049
65.6988 33.9268 3.97026
64.6645 30.191 3.97015
63.5391 26.4134 3.97102
62.2589 28.7768 3.97156
60.7768 14.2198 3.98284
61.0444 25.3374 3.97111
60.6156 17.123 3.97944
60.2246 19.8136 3.97331
59.6603 22.2585 3.96951
58.9753 24.3208 3.97173
54.038 9.13358 3.98698
57.9114 14.3274 3.9812
54.7872 12.0079 3.98269
55.3131 14.6413 3.97986
67.5089 50.1771 0.0254686
57.0259 66.7357 0.00701502
60.6697 63.9779 0.00877758
57.559 63.6947 0.0136182
65.7038 54.1741 0.0235846
64.5385 51.386 0.0289855
60.7746 60.9414 0.0172655
60.6608 58.164 0.0231215
62.8231 55.0706 0.0245488
60.3303 55.7891 0.0250006
55.0717 67.9328 2
59.2205 62.3705 2
55.8057 64.9136 2
56.328 62.0959 2
65.3327 49.409 2
63.7071 53.2937 2
62.441 50.6528 2
59.3354 59.5631 2
61.0791 54.3122 2
59.2916 57.017 2
59.2443 55.1855 2
53.0432 69.0006 3.9934
53.9681 66.0149 3.98921
57.8819 60.8745 3.98116
54.6849 63.2119 3.98464
55.2124 60.6215 3.98065
63.1942 48.6619 3.96914
61.7404 52.5758 3.96933
60.2704 50.0191 3.96869
58.0196 58.2656 3.97601
59.3275 53.9481 3.97336
58.1273 55.8129 3.97174
50.1105 67.8582 3.98949
47.4641 66.584 3.98707
46.0573 69.1596 3.98955
48.1037 68.5807 2
48.8031 70.7236 3.99356
50.9492 69.9325 2
51.8506 72.1454 4
54.0858 71.1327 2
56.25 69.9759 0
55.1035 7.13953 3.99206
58.3339 6.31992 4
57.0597 8.33502 2
60.3286 7.74926 2
58.9219 9.65483 0.00857148
62.2254 9.30607 0
68.2674 48.1077 0.0257838
69.4319 43.9081 0.0258401
66.7117 45.441 0.028932
67.5981 41.4981 0.0300163
70.0419 39.6575 0.0268713
72.4891 37.5121 0.0175237
70.1298 37.5215 2
67.835 39.5125 2
67.2251 43.4707 2
65.556 41.2104 2
66.0699 47.4188 2
64.654 44.8494 2
67.9313 37.5219 3.96978
65.7863 39.3705 3.96976
65.1773 43.0261 3.97013
63.7462 40.9301 3.97135
63.9662 46.7175 3.96962
62.8079 44.2172 3.97167
70.0585 35.3918 0.0267824
69.4684 31.1491 0.0257117
67.6566 33.5904 0.0293361
66.7743 29.6217 0.0286844
62.3426 12.6537 0.0105432
62.2014 15.7807 0.0174808
61.8171 18.6808 0.0234884
65.5257 25.6987 0.0279086
64.1481 28.2544 0.0289814
62.8577 24.6368 0.0289078
61.2191 21.3403 0.028814
60.4248 23.7276 0.029436
59.2472 12.7753 0.0169103
56.406 13.1087 0.0187177
55.8749 10.2304 0.0138561
67.8709 35.5472 2
67.2665 31.6217 2
65.6986 33.9267 2
64.6646 30.1909 2
60.7768 14.2191 2
60.6156 17.1218 2
60.225 19.8125 2
63.5389 26.4133 2
62.2589 28.7767 2
59.6605 22.2581 2
61.0443 25.3374 2
58.9753 24.3211 2
57.9112 14.3266 2
55.3129 14.6404 2
54.0381 9.13284 2
54.7873 12.0068 2
65.8756 35.6665 3.9697
65.1867 32.1536 3.96965
64.2798 34.2495 3.97081
62.5939 30.6351 3.97103
61.6514 27.0714 3.97115
60.8482 29.1396 3.97345
59.3124 15.6642 3.98081
59.3258 25.7966 3.97245
59.1257 18.3513 3.97723
58.7395 20.8532 3.96999
58.2812 23.0939 3.96938
57.9627 24.6651 3.972
52.1127 8.15181 3.98764
53.0583 11.014 3.98364
56.6775 15.7376 3.98037
53.8098 13.6762 3.98101
54.3766 15.9938 3.97989
55.0714 67.9327 0.00678153
65.3328 49.4091 0.0294581
55.8058 64.9126 0.0114641
59.2204 62.3694 0.0161055
56.328 62.0946 0.0174412
63.7072 53.2933 0.0282236
62.4411 50.6528 0.0308937
59.3351 59.5618 0.0202364
59.2911 57.0162 0.026426
61.0788 54.3116 0.0257219
59.2438 55.1851 0.0235821
53.0435 69.0007 2
53.968 66.0156 2
57.8819 60.8757 2
54.6848 63.2131 2
55.2124 60.623 2
63.1941 48.6619 2
61.7405 52.5761 2
60.2703 50.019 2
58.0201 58.2669 2
59.328 53.9482 2
58.1279 55.8128 2
52.0716 67.0014 3.98942
52.9543 64.2225 3.98626
56.6494 59.4934 3.97938
[...]
POINT_DATA 3012
SCALARS Jp_lamdaP float 4
LOOKUP_TABLE default
0.999982 1 1 0.999982
1 1 1 1
0.999984 1 1 0.999984
0.999958 1 1 0.999958
0.999976 1 1 0.999976
0.999989 1 1 0.999989
0.999766 1 1 0.999766
1 1 1 1
1 1 1 1
1 1 1 1
1 1 1 1
0.999899 1 1 0.999899
0.999926 1 1 0.999926
0.999955 1 1 0.999955
0.999985 1 1 0.999985
0.999962 1 1 0.999962
0.999991 1 1 0.999991
0.999979 1 1 0.999979
0.999769 1 1 0.999769
1 1 1 1
0.999951 1 1 0.999951
0.999967 1 1 0.999967
0.999655 1 1 0.999655
0.999729 1 1 0.999729
0.999998 1 1 0.999998
0.999812 1 1 0.999812
0.999405 1 1 0.999405
1 1 1 1
0.999984 1 1 0.999984
0.999995 1 1 0.999995
1 1 1 1
0.999906 1 1 0.999906
0.999964 1 1 0.999964
0.999984 1 1 0.999984
0.999797 1 1 0.999797
1 1 1 1
0.999874 1 1 0.999874
0.999933 1 1 0.999933
0.999487 1 1 0.999487
1 1 1 1
1 1 1 1
0.999976 1 1 0.999976
1 1 1 1
0.999945 1 1 0.999945
0.999618 1 1 0.999618
1 1 1 1
0.999733 1 1 0.999733
0.999966 1 1 0.999966
0.999981 1 1 0.999981
0.999993 1 1 0.999993
0.999773 1 1 0.999773
0.999964 1 1 0.999964
0.999956 1 1 0.999956
0.999999 1 1 0.999999
0.999971 1 1 0.999971
0.999656 1 1 0.999656
0.999814 1 1 0.999814
0.999732 1 1 0.999732
0.999392 1 1 0.999392
1 1 1 1
0.99994 1 1 0.99994
0.999682 1 1 0.999682
0.999636 1 1 0.999636
0.99969 1 1 0.99969
0.999142 1 1 0.999142
0.999277 1 1 0.999277
1 1 1 1
0.999875 1 1 0.999875
0.999503 1 1 0.999503
0.999002 1 1 0.999002
1 1 1 1
1 1 1 1
1 1 1 1
0.999913 1 1 0.999913
1 1 1 1
1 1 1 1
0.999788 1 1 0.999788
1 1 1 1
0.999875 1 1 0.999875
0.999944 1 1 0.999944
0.999485 1 1 0.999485
1 1 1 1
1 1 1 1
0.999745 1 1 0.999745
0.999823 1 1 0.999823
0.999195 1 1 0.999195
0.999972 1 1 0.999972
0.999429 1 1 0.999429
0.999543 1 1 0.999543
0.99921 1 1 0.99921
1 1 1 1
1 1 1 1
1 1 1 1
1 1 1 1
1 1 1 1
0.999969 1 1 0.999969
0.99965 1 1 0.99965
0.999979 1 1 0.999979
0.999725 1 1 0.999725
1 1 1 1
0.999587 1 1 0.999587
0.999704 1 1 0.999704
0.998894 1 1 0.998894
0.999753 1 1 0.999753
0.998996 1 1 0.998996
0.999936 1 1 0.999936
0.99996 1 1 0.99996
1 1 1 1
0.999974 1 1 0.999974
0.999658 1 1 0.999658
0.999736 1 1 0.999736
0.999817 1 1 0.999817
0.999379 1 1 0.999379
1 1 1 1
0.999946 1 1 0.999946
0.999609 1 1 0.999609
0.999636 1 1 0.999636
1 1 1 1
0.9999 1 1 0.9999
0.999693 1 1 0.999693
0.999118 1 1 0.999118
0.999488 1 1 0.999488
0.999292 1 1 0.999292
0.999003 1 1 0.999003
0.999604 1 1 0.999604
0.999617 1 1 0.999617
0.998973 1 1 0.998973
0.999065 1 1 0.999065
0.999174 1 1 0.999174
0.998762 1 1 0.998762
1 1 1 1
0.998923 1 1 0.998923
0.999966 1 1 0.999966
0.999544 1 1 0.999544
0.999084 1 1 0.999084
0.998833 1 1 0.998833
0.999996 1 1 0.999996
0.999729 1 1 0.999729
1 1 1 1
1 1 1 1
0.999794 1 1 0.999794
1 1 1 1
0.999956 1 1 0.999956
0.999879 1 1 0.999879
0.999483 1 1 0.999483
1 1 1 1
1 1 1 1
0.999762 1 1 0.999762
0.999838 1 1 0.999838
0.999197 1 1 0.999197
0.99998 1 1 0.99998
0.999431 1 1 0.999431
0.999542 1 1 0.999542
0.9992 1 1 0.9992
0.999995 1 1 0.999995
1 1 1 1
0.999779 1 1 0.999779
0.999096 1 1 0.999096
0.999323 1 1 0.999323
0.99886 1 1 0.99886
0.999618 1 1 0.999618
0.999141 1 1 0.999141
0.999249 1 1 0.999249
0.999095 1 1 0.999095
1 1 1 1
1 1 1 1
1 1 1 1
1 1 1 1
1 1 1 1
1 1 1 1
1 1 1 1
0.999714 1 1 0.999714
0.999635 1 1 0.999635
1 1 1 1
1 1 1 1
0.999589 1 1 0.999589
0.999696 1 1 0.999696
0.998894 1 1 0.998894
0.999733 1 1 0.999733
0.998996 1 1 0.998996
0.999576 1 1 0.999576
0.998835 1 1 0.998835
0.998954 1 1 0.998954
0.998758 1.00018 1 0.998577
0.999036 1 1 0.999036
0.998686 1 1 0.998686
1 1 1 1
0.999952 1 1 0.999952
0.999533 1 1 0.999533
0.999637 1 1 0.999637
1 1 1 1
0.999925 1 1 0.999925
0.999696 1 1 0.999696
0.999095 1 1 0.999095
0.999308 1 1 0.999308
0.999473 1 1 0.999473
0.999005 1 1 0.999005
0.999601 1 1 0.999601
0.999618 1 1 0.999618
0.998925 1 1 0.998925
0.999084 1 1 0.999084
1 1 1 1
0.999958 1 1 0.999958
0.999564 1 1 0.999564
0.999175 1 1 0.999175
0.998733 1 1 0.998733
0.99908 1 1 0.99908
0.998938 1 1 0.998938
0.998836 1 1 0.998836
0.999993 1 1 0.999993
0.999729 1 1 0.999729
0.998847 1 1 0.998847
0.999031 1 1 0.999031
0.998641 1 1 0.998641
0.998662 1 1 0.998662
0.998851 1 1 0.998851
0.998661 1.00004 1 0.998626
0.999985 1 1 0.999985
0.998766 1 1 0.998766
0.999592 1 1 0.999592
0.9992 1 1 0.9992
0.998916 1 1 0.998916
0.99884 1.00006 1 0.998779
0.999657 1 1 0.999657
0.999815 1 1 0.999815
0.999406 1 1 0.999406
0.999757 1 1 0.999757
1 1 1 1
1 1 1 1
0.999842 1 1 0.999842
0.999199 1 1 0.999199
0.999988 1 1 0.999988
0.999542 1 1 0.999542
0.999432 1 1 0.999432
0.999191 1 1 0.999191
0.999997 1 1 0.999997
1 1 1 1
0.99978 1 1 0.99978
0.999097 1 1 0.999097
0.999327 1 1 0.999327
0.99886 1 1 0.99886
0.999618 1 1 0.999618
0.99915 1 1 0.99915
0.999247 1 1 0.999247
0.999084 1 1 0.999084
1 1 1 1
0.999693 1 1 0.999693
0.999864 1 1 0.999864
0.99947 1 1 0.99947
0.998766 1 1 0.998766
0.999015 1 1 0.999015
0.999283 1.00059 1 0.998694
0.999329 1 1 0.999329
0.999024 1 1 0.999024
0.999443 1 1.00038 0.999061
0.998998 1 1 0.998998
0.999971 1 1 0.999971
1 1 1 1
1 1 1 1
1 1 1 1
1 1 1 1
1 1 1 1
1 1 1 1
0.999999 1 1 0.999999
1 1 1 1
0.999734 1 1 0.999734
0.999682 1 1 0.999682
0.998996 1 1 0.998996
0.998894 1 1 0.998894
0.999591 1 1 0.999591
1 1 1 1
0.999575 1 1 0.999575
0.998835 1 1 0.998835
0.998954 1 1 0.998954
0.998706 1.00013 1 0.998576
0.999036 1 1 0.999036
0.998686 1 1 0.998686
0.99882 1 1 0.99882
0.998902 1.00039 1 0.998517
0.998647 1.00001 1 0.998638
1.00128 1.00279 1 0.998494
0.998722 1 1 0.998722
0.999495 1.00091 1 0.998584
0.999598 1 1 0.999598
0.999618 1 1 0.999618
0.998877 1 1 0.998877
0.999102 1 1 0.999102
1 1 1 1
0.99995 1 1 0.99995
0.999584 1 1 0.999584
0.999177 1 1 0.999177
0.998705 1 1 0.998705
0.998952 1 1 0.998952
0.999076 1 1 0.999076
0.998838 1 1 0.998838
0.999991 1 1 0.999991
0.999729 1 1 0.999729
0.998831 1 1 0.998831
0.999031 1 1 0.999031
0.998666 1.00004 1 0.998629
0.998692 1 1 0.998692
0.99998 1 1 0.99998
0.999592 1 1 0.999592
0.999222 1 1 0.999222
0.998851 1 1 0.998851
0.998745 1.00013 1 0.99862
0.998892 1 1 0.998892
0.998767 1 1 0.998767
0.998948 1.00017 1 0.99878
0.999658 1 1 0.999658
0.999403 1 1 0.999403
0.999813 1 1 0.999813
0.998716 1.00014 1 0.998581
0.998671 1 1 0.998666
1.00061 1.00212 1 0.998491
0.999003 1.00045 1 0.998558
0.998732 1.00004 1 0.998694
1.00013 1.00151 1 0.998623
0.999621 1 1 0.999621
0.999274 1.00054 1 0.998732
0.999334 1 1 0.999334
0.999 1 1 0.999
0.998776 1 1 0.998776
0.99928 1.00045 1 0.998828
0.99988 1 1 0.99988
0.999391 1 1 0.999391
0.999445 1 1 0.999445
0.999286 1 1 0.999286
0.999098 1 1 0.999098
1 1 1 1
0.999999 1 1 0.999999
0.999781 1 1 0.999781
0.999331 1 1 0.999331
0.998859 1 1 0.998859
0.999619 1 1 0.999619
0.999245 1 1 0.999245
0.999159 1 1 0.999159
0.999073 1 1 0.999073
1 1 1 1
0.999693 1 1 0.999693
0.999868 1 1 0.999868
0.999469 1 1 0.999469
0.998764 1 1 0.998764
0.999018 1 1 0.999018
0.999081 1.00039 1 0.998694
0.999331 1 1 0.999331
0.999036 1 1 0.999036
0.999289 1 1.00023 0.999055
0.999037 1 1 0.999037
1 1 1 1
0.999917 1 1 0.999917
0.999405 1 1 0.999405
0.999551 1 1 0.999551
0.999295 1 1 0.999295
0.9995 1.00088 1 0.998623
0.998897 1.00003 1 0.998863
0.999692 1.00105 1 0.998639
0.999448 1 1.00033 0.999122
0.99896 1 1 0.99896
0.999295 1 1.00042 0.998872
0.99996 1 1 0.99996
0.999753 1 1 0.999753
0.999979 1 1 0.999979
0.999973 1 1 0.999973
1 1 1 1
1 1 1 1
1 1 1 1
1 1 1 1
1 1 1 1
1 1 1 1
1 1 1 1
1 1 1 1
1 1 1 1
0.999998 1 1 0.999998
1 1 1 1
0.999036 1 1 0.999036
0.998954 1 1 0.998954
0.998686 1 1 0.998686
0.998652 1.00008 1 0.998575
0.998835 1 1 0.998835
0.999575 1 1 0.999575
0.99882 1 1 0.99882
0.998854 1.00034 1 0.998517
0.998642 1 1 0.998638
1.00119 1.0027 1 0.99849
0.998721 1 1 0.998721
0.999284 1.0007 1 0.998585
0.998847 1.00035 1 0.998501
1.00318 1.00475 1 0.998439
1.00046 1.00193 1 0.998538
1.00568 1.0072 1 0.998495
0.999156 1.00055 1 0.99861
1.00208 1.00346 1 0.998625
0.998816 1 1 0.998816
0.99903 1 1 0.99903
0.998693 1.00008 1 0.998617
0.998722 1 1 0.998722
0.999975 1 1 0.999975
0.999592 1 1 0.999592
0.999244 1 1 0.999244
0.998851 1 1 0.998851
0.998832 1.00022 1 0.998613
0.998767 1 1 0.998767
0.998869 1 1 0.998869
0.999079 1.0003 1 0.998781
0.99966 1 1 0.99966
0.999401 1 1 0.999401
0.999812 1 1 0.999812
0.998756 1.0002 1 0.998555
0.998671 1 1 0.998666
1.00087 1.00239 1 0.998481
0.999314 1.00075 1 0.998563
0.999622 1 1 0.999622
0.999331 1 1 0.999331
0.999027 1 1 0.999027
0.998741 1.00004 1 0.998704
1.00018 1.00155 1 0.998631
0.998759 1 1 0.998759
0.999521 1.00079 1 0.998733
0.99933 1.00049 1 0.998837
0.999394 1 1 0.999394
0.999272 1 1 0.999272
0.999877 1 1 0.999877
0.999457 1 1 0.999457
1.00163 1.0032 1 0.998433
1.00011 1.00159 1 0.998524
1.0054 1.00697 1 0.998445
1.00126 1.00271 1 0.998552
1.00017 1.00149 1 0.998684
1.00299 1.00433 1 0.998658
0.999382 1 1 0.999382
1.00071 1.00189 1 0.998822
0.999164 1 1 0.999164
0.998879 1 1.00004 0.998837
0.998766 1.00007 1 0.998694
1.00026 1.00143 1 0.998838
0.999913 1 1 0.999913
0.999524 1 1 0.999524
0.999279 1 1 0.999279
0.9993 1 1 0.9993
0.999227 1 1 0.999227
1 1 1 1
0.998762 1 1 0.998762
0.999871 1 1 0.999871
0.999692 1 1 0.999692
0.999467 1 1 0.999467
0.99902 1 1 0.99902
0.998894 1.0002 1 0.998694
0.999333 1 1 0.999333
0.999226 1 1.00018 0.999048
0.999047 1 1 0.999047
0.999077 1 1 0.999077
1 1 1 1
0.999922 1 1 0.999922
0.999405 1 1 0.999405
0.999551 1 1 0.999551
0.999284 1 1 0.999284
0.999497 1.00088 1 0.998621
0.998884 1.00002 1 0.998864
0.999697 1.00106 1 0.998634
0.999404 1 1.00028 0.999124
0.998969 1 1 0.998969
0.999527 1 1.00064 0.998888
0.999944 1 1 0.999944
0.999629 1 1 0.999629
0.999212 1 1 0.999212
0.999357 1 1 0.999357
0.999189 1 1 0.999189
1.00088 1.00229 1 0.998593
0.999239 1.00044 1 0.998799
1.00029 1.00157 1 0.998724
1.00109 1 1.00215 0.998941
0.998783 1 1 0.998783
0.999963 1 1 0.999963
0.999698 1 1 0.999698
0.999738 1 1 0.999738
0.999596 1 1 0.999596
0.999761 1 1 0.999761
0.999983 1 1 0.999983
0.99998 1 1 0.99998
1 1 1 1
0.999976 1 1 0.999976
1 1 1 1
1 1 1 1
1 1 1 1
1 1 1 1
1 1 1 1
1 1 1 1
1 1 1 1
1 1 1 1
1 1 1 1
1 1 1 1
1 1 1 1
0.99872 1 1 0.99872
0.998638 1 1 0.998638
0.999074 1.00049 1 0.998585
1.00108 1.0026 1 0.998486
0.998812 1.0003 1 0.998517
0.998819 1 1 0.998819
0.998877 1.00038 1 0.998501
1.00324 1.00482 1 0.998432
1.00011 1.00158 1 0.998538
1.00571 1.00723 1 0.998497
0.999322 1.00072 1 0.998607
1.00192 1.0033 1 0.998626
1.00289 1.00449 1 0.998408
1.00852 1.0101 1 0.998437
1.00383 1.00528 1 0.998555
1.00749 1.00899 1 0.99851
1.00193 1.00331 1 0.998621
1.00504 1.00638 1 0.998672
0.99879 1.00026 1 0.99853
0.998668 1 1 0.998665
1.00112 1.00265 1 0.998472
0.999626 1.00106 1 0.998569
0.999623 1 1 0.999623
0.999328 1 1 0.999328
0.999053 1 1 0.999053
0.99875 1.00004 1 0.998714
1.00022 1.00158 1 0.998639
0.999739 1.00101 1 0.998733
0.998742 1 1 0.998742
0.999374 1.00053 1 0.998846
0.999396 1 1 0.999396
0.999257 1 1 0.999257
0.999874 1 1 0.999874
0.999468 1 1 0.999468
1.00195 1.00352 1 0.998434
1.00031 1.00179 1 0.998524
1.00493 1.00649 1 0.998448
1.00103 1.00248 1 0.998553
0.999381 1 1 0.999381
0.999185 1 1 0.999185
0.998985 1 1.00015 0.998835
1.00022 1.00154 1 0.998679
1.00288 1.0042 1 0.998689
0.998767 1.00008 1 0.998685
1.00096 1.00214 1 0.998823
1.00007 1.00121 1 0.998868
0.999279 1 1 0.999279
0.999223 1 1 0.999223
0.999297 1 1 0.999297
0.999891 1 1 0.999891
0.999534 1 1 0.999534
1.00774 1.00934 1 0.998411
1.00505 1.0066 1 0.998455
1.00426 1.00567 1 0.998596
1.00326 1.00452 1 0.998742
0.999271 1 1 0.999271
1.00281 1.00392 1 0.998894
0.99913 1 1.00009 0.999044
0.999004 1 1.00037 0.998637
0.999423 1.0008 1 0.998625
0.999897 1 1 0.999897
0.999629 1 1 0.999629
0.999378 1 1 0.999378
0.999244 1 1 0.999244
0.999185 1 1 0.999185
0.999184 1 1 0.999184
1 1 1 1
0.999926 1 1 0.999926
0.999478 1.00086 1 0.998618
0.99955 1 1 0.99955
0.999405 1 1 0.999405
0.999273 1 1 0.999273
0.998865 1 1 0.998865
0.999632 1.001 1 0.998629
0.999302 1 1.00018 0.999127
0.99948 1 1.00058 0.998903
0.998978 1 1 0.998978
0.999948 1 1 0.999948
0.999629 1 1 0.999629
0.999236 1 1.00002 0.999221
0.999356 1 1 0.999356
0.999176 1 1 0.999176
1.00089 1.0023 1 0.998591
0.999018 1.00022 1 0.998794
1.0003 1.00156 1 0.99874
1.00058 1 1.00165 0.998931
0.99881 1 1.00006 0.998754
0.999686 1 1 0.999686
0.999403 1 1 0.999403
1.00004 1 1.00096 0.999078
0.999188 1 1 0.999188
0.999095 1 1 0.999095
1.0042 1.00541 1 0.99879
0.9991 1.0004 1 0.998701
1.00147 1.00273 1 0.998748
1.00209 1 1.00327 0.998826
0.998564 1 1 0.998564
0.999967 1 1 0.999967
0.99971 1 1 0.99971
0.999515 1 1 0.999515
0.999723 1 1 0.999723
0.999761 1 1 0.999761
0.999574 1 1 0.999574
0.999459 1 1 0.999459
0.999568 1 1 0.999568
0.999769 1 1 0.999769
0.999983 1 1 0.999983
0.999983 1 1 0.999983
1 1 1 1
0.999982 1 1 0.999982
1 1 1 1
1 1 1 1
1 1 1 1
1 1 1 1
1 1 1 1
1 1 1 1
1 1 1 1
1 1 1 1
1 1 1 1
1 1 1 1
1 1 1 1
0.999502 1.0009 1 0.998605
0.999771 1.00123 1 0.998538
1.00177 1.00314 1 0.998627
1.00575 1.00726 1 0.9985
1.0033 1.00488 1 0.998425
0.998906 1.0004 1 0.998502
1.00297 1.00458 1 0.998405
1.00841 1.00999 1 0.998437
1.00418 1.00564 1 0.998544
1.0078 1.00931 1 0.998508
1.00148 1.00286 1 0.998622
1.00491 1.00623 1 0.99869
1.00871 1.01032 1 0.998406
1.00932 1.01086 1 0.99848
1.00792 1.00934 1 0.998586
1.00524 1.00649 1 0.998754
1.00227 1.00384 1 0.998435
1.0005 1.00198 1 0.998524
1.00447 1.00603 1 0.998451
1.00081 1.00226 1 0.998553
0.99938 1 1 0.99938
0.999207 1 1 0.999207
0.999202 1 1.00037 0.998832
1.00028 1.00161 1 0.998673
1.00281 1.0041 1 0.998719
1.00123 1.00241 1 0.998824
0.998762 1.00009 1 0.998676
0.999876 1.00098 1 0.998898
0.99928 1 1 0.99928
0.999219 1 1 0.999219
0.999295 1 1 0.999295
0.999868 1 1 0.999868
0.999544 1 1 0.999544
1.00729 1.00889 1 0.998415
1.005 1.00654 1 0.998461
1.00413 1.00554 1 0.998603
0.999269 1 1 0.999269
0.999181 1 1.00011 0.999069
0.999253 1 1.00062 0.998632
1.0034 1.00468 1 0.998733
0.99942 1.00076 1 0.998663
1.00208 1.00319 1 0.998895
0.999898 1 1 0.999898
0.999243 1 1 0.999243
0.999196 1 1 0.999196
0.999181 1 1 0.999181
0.999385 1 1 0.999385
0.999612 1 1 0.999612
1.00872 1.01031 1 0.998427
1.00644 1.00796 1 0.998492
1.00559 1.00695 1 0.998657
1.00534 1.00652 1 0.998833
0.999204 1 1 0.999204
1.00068 1.00196 1 0.998724
0.999995 1 1.0012 0.998799
0.999691 1.00015 1.00104 0.998499
0.999923 1 1 0.999923
0.999683 1 1 0.999683
0.999448 1 1 0.999448
0.99921 1 1 0.99921
0.999185 1 1 0.999185
0.999127 1 1 0.999127
0.999952 1 1 0.999952
0.99963 1 1 0.99963
1.00094 1.00235 1 0.998588
0.999355 1 1 0.999355
0.999229 1 1 0.999229
0.999163 1 1 0.999163
0.998831 1.00004 1 0.99879
1.00036 1.0016 1 0.998756
1.00006 1 1.00114 0.998921
0.998985 1 1.00026 0.998726
0.999686 1 1 0.999686
0.999411 1 1 0.999411
0.999785 1 1.00069 0.999094
0.999194 1 1 0.999194
0.999105 1 1 0.999105
1.00412 1.00533 1 0.998795
0.999104 1.0004 1 0.998702
1.00144 1.00262 1 0.998823
1.00231 1 1.0035 0.998814
0.998554 1 1.00003 0.998525
0.999475 1 1 0.999475
0.999226 1 1 0.999226
1.00175 1 1.00278 0.998976
0.999034 1 1 0.999034
1.01034 1.01152 1 0.998831
1.00651 1.00777 0.999872 0.998879
1.00024 1.00171 1 0.99853
1.00236 1 1.00382 0.998549
0.999722 1 1 0.999722
0.999525 1 1 0.999525
0.999403 1 1 0.999403
0.999761 1 1 0.999761
0.999552 1 1 0.999552
0.999769 1 1 0.999769
0.999442 1 1 0.999442
0.999576 1 1 0.999576
0.999346 1 1 0.999346
0.999443 1 1 0.999443
0.999576 1 1 0.999576
0.99977 1 1 0.99977
0.999981 1 1 0.999981
0.999982 1 1 0.999982
1 1 1 1
0.999983 1 1 0.999983
1 1 1 1
1 1 1 1
1 1 1 1
1 1 1 1
1 1 1 1
1 1 1 1
1 1 1 1
1 1 1 1
1 1 1 1
1 1 1 1
1 1 1 1
1.00101 1.00239 1 0.998623
1.00452 1.006 1 0.998533
1.00478 1.00608 1 0.998709
1.0081 1.00961 1 0.998505
1.0083 1.00988 1 0.998437
1.00307 1.00467 1 0.998401
1.00847 1.01007 1 0.998412
1.00904 1.01058 1 0.998478
1.00773 1.00915 1 0.998591
1.00603 1.00729 1 0.998749
1.01028 1.01185 1 0.998449
1.01028 1.01172 1 0.998569
1.0093 1.01062 1 0.998689
1.00685 1.00845 1 0.998419
1.00496 1.0065 1 0.998468
1.00397 1.00536 1 0.99861
0.999267 1 1 0.999267
0.999094 1 1 0.999094
0.999319 1 1.00069 0.998626
1.0035 1.00478 1 0.998725
1.00146 1.00257 1 0.998896
0.999434 1.00073 1 0.998701
0.999241 1 1 0.999241
0.999208 1 1 0.999208
0.999177 1 1 0.999177
0.9999 1 1 0.9999
0.999393 1 1 0.999393
0.999594 1 1 0.999594
1.00932 1.01091 1 0.998429
1.00626 1.00778 1 0.998492
1.00557 1.00694 1 0.998644
0.999198 1 1 0.999198
0.99984 1 1.001 0.998844
0.999546 1.00014 1.0009 0.998505
1.00573 1.00688 1 0.998851
1.00091 1.00219 1 0.998718
0.999941 1 1 0.999941
0.999683 1 1 0.999683
0.999186 1 1 0.999186
0.999146 1 1 0.999146
0.999212 1 1 0.999212
0.999435 1 1 0.999435
1.00977 1.01129 1 0.998498
1.00739 1.00884 1 0.99856
1.00824 1.00954 0.999905 0.998807
1.0057 1.00682 1 0.998894
0.999731 1 1.00065 0.999083
1.00017 1.00032 1.0014 0.998449
1.00119 1 1.00254 0.998654
0.999978 1 1 0.999978
0.999786 1 1 0.999786
0.999687 1 1 0.999687
0.99947 1 1 0.99947
0.999276 1 1 0.999276
0.999088 1 1 0.999088
0.999203 1 1 0.999203
1.00118 1 1.00201 0.999172
0.999687 1 1 0.999687
0.999419 1 1 0.999419
1.00395 1.00516 1 0.998801
0.9992 1 1 0.9992
0.99975 1 1.00064 0.99911
0.999114 1 1 0.999114
0.999089 1.00039 1 0.998703
1.00136 1.00246 1 0.998898
1.00252 1 1.00373 0.998802
0.998486 1 1 0.998486
0.999467 1 1 0.999467
0.999235 1 1 0.999235
1.00206 1 1.00308 0.998989
0.999047 1 1 0.999047
1.00981 1.01099 1 0.998825
1.0059 1.00709 0.999949 0.998873
1.00055 1.00199 1 0.998563
1.0019 1 1.00338 0.998527
0.999345 1 1 0.999345
1.01062 1.01247 0.999408 0.99877
0.999097 1 1 0.999097
1.00106 1 1.00222 0.998844
1.01273 1.01411 0.999722 0.998909
1.00497 1.00642 1 0.998563
1.00222 1.00059 1.00323 0.998407
0.999536 1 1 0.999536
0.999402 1 1 0.999402
0.999296 1 1 0.999296
0.999769 1 1 0.999769
0.999584 1 1 0.999584
0.999425 1 1 0.999425
0.999769 1 1 0.999769
0.999575 1 1 0.999575
0.999332 1 1 0.999332
0.99946 1 1 0.99946
0.999261 1 1 0.999261
0.999332 1 1 0.999332
0.999473 1 1 0.999473
0.99959 1 1 0.99959
0.999763 1 1 0.999763
0.999978 1 1 0.999978
0.99998 1 1 0.99998
1 1 1 1
0.999982 1 1 0.999982
1 1 1 1
1 1 1 1
1 1 1 1
1 1 1 1
1 1 1 1
0.999988 1 1 0.999988
1 1 1 1
1 1 1 1
1 1 1 1
1 1 1 1
1 1 1 1
1 1 1 1
1.00685 1.00811 1 0.998743
1.00754 1.00896 1 0.998597
1.00878 1.01032 1 0.998477
1.00822 1.00982 1 0.998417
1.01013 1.0117 1 0.998457
1.0107 1.01216 1 0.998558
1.00987 1.01119 1 0.998703
1.01044 1.01191 1 0.998542
1.01201 1.01338 1 0.998647
1.00792 1.01061 0.998531 0.998805
1.00987 1.01146 1 0.99843
1.00611 1.00763 1 0.998492
1.00564 1.00702 1 0.998631
0.999193 1 1 0.999193
0.999939 1 1.00105 0.998889
0.999388 1.0001 1.00078 0.998512
1.00621 1.00735 1 0.998869
1.00094 1.00223 1 0.998712
0.999188 1 1 0.999188
0.999164 1 1 0.999164
0.999214 1 1 0.999214
0.99996 1 1 0.99996
0.999683 1 1 0.999683
0.999421 1 1 0.999421
1.0093 1.01081 1 0.99851
0.999975 1 1 0.999975
0.999774 1 1 0.999774
1.00706 1.00852 1 0.998559
1.00943 1.01066 1 0.998778
0.999695 1 1.00058 0.999111
1.00187 1 1.00325 0.998622
0.999821 1.00053 1.00084 0.998456
1.00519 1.00631 1 0.998891
0.999721 1 1 0.999721
0.999469 1 1 0.999469
0.999176 1 1 0.999176
1.00023 1 1.001 0.99923
0.999068 1 1 0.999068
0.999279 1 1 0.999279
1.01086 1.01244 0.999815 0.998622
1.01097 1.01232 1 0.998665
1.00949 1.01114 0.999376 0.998993
1.00115 1.00248 1 0.99868
1.00134 1 1.00228 0.99906
1.00393 1.00004 1.00546 0.998443
0.999789 1 1 0.999789
0.999751 1 1 0.999751
0.999618 1 1 0.999618
0.999475 1 1 0.999475
0.999334 1 1 0.999334
0.999128 1 1 0.999128
1.00122 1 1.00224 0.998988
0.999244 1 1 0.999244
0.99946 1 1 0.99946
0.999243 1 1 0.999243
1.00947 1.01066 1 0.998819
1.00548 1.00662 1 0.998866
0.999061 1 1 0.999061
1.00227 1 1.00327 0.999002
1.00093 1.0023 1.00004 0.998597
1.00149 1 1.00299 0.998505
0.999342 1 1 0.999342
1.01075 1.01258 0.999406 0.998787
0.999101 1 1 0.999101
1.00113 1 1.00231 0.998825
1.0125 1.01389 0.999738 0.998894
1.0054 1.00683 1 0.99858
1.00239 1.0005 1.00348 0.998414
0.99919 1 1 0.99919
1.01796 1.02129 0.997801 0.998938
0.998979 1 1 0.998979
1.00229 1 1.00366 0.998644
1.00612 1.01025 0.997225 0.998677
1.00181 1.0012 1.00221 0.998405
1.00645 1.00894 0.998525 0.999005
0.999402 1 1 0.999402
0.999295 1 1 0.999295
0.999214 1 1 0.999214