# vtk DataFile Version 2.0
Wound Healing Simulation
ASCII
DATASET UNSTRUCTURED_GRID
POINTS 3012 float
69.9759 18.75 4
67.2507 60.3285 4
69.976 18.75 2
73.0099 25.446 4
71.1327 20.9142 4
68.6801 16.6661 4
67.8277 19.9242 3.98807
67.2507 60.3286 2
71.1327 54.0858 4
68.6801 58.3339 4
65.6939 62.2254 4
65.3141 59.0045 3.98922
74.6784 42.3946 4
73.7221 47.2057 4
69.9759 18.75 0
73.0099 25.446 2
68.6801 16.6661 2
71.1327 20.9142 2
67.8282 19.9251 2
74.6792 32.6053 4
73.7222 27.7943 4
72.1454 23.1494 4
70.616 26.2226 3.98677
68.8881 21.9578 3.98779
67.2507 14.6715 4
66.6391 17.9687 3.98867
65.8038 21.0205 3.98336
67.2507 60.3285 0
71.1327 54.0858 2
68.6801 58.3339 2
65.694 62.2255 2
65.3144 59.0043 2
72.1454 51.8506 4
69.9759 56.25 4
68.8389 53.1132 3.98754
64.0165 64.0165 4
66.6129 57.1364 3.98883
63.8874 60.7692 3.99044
63.5057 57.7796 3.9847
60.3285 67.2507 4
74.6792 42.3947 2
73.7222 47.2057 2
74.9194 39.9526 4
74.2788 44.8158 4
72.1693 42.0852 3.98532
73.0099 49.554 4
71.2511 46.5968 3.98671
73.0099 25.446 0
71.1327 20.9142 0
68.6801 16.6661 0
67.8277 19.9242 0.0119282
74.6792 32.6053 2
73.7222 27.7943 2
67.2508 14.6715 2
72.1455 23.1494 2
70.6161 26.2234 2
66.6396 17.9691 2
68.8884 21.959 2
65.804 21.0199 2
74.9197 35.0474 4
74.2794 30.1841 4
72.1858 32.9434 3.98546
71.2797 28.4327 3.98642
69.8178 24.0607 3.98738
68.3518 26.9516 3.97945
66.7691 22.9306 3.98236
65.694 12.7746 4
65.3255 16.0996 3.98965
64.72 19.1876 3.98439
63.8976 22.027 3.98063
71.1327 54.0858 0
65.6939 62.2254 0
68.6801 58.3339 0
65.3141 59.0045 0.0107784
72.1455 51.8506 2
69.9759 56.25 2
68.8392 53.112 2
64.0165 64.0165 2
66.6132 57.1359 2
63.8876 60.7692 2
63.5058 57.7802 2
62.2254 65.694 4
58.8945 65.4163 3.99264
69.7714 50.9878 3.98714
67.7862 55.1689 3.98827
66.6564 52.2116 3.98206
62.3374 62.4302 3.99157
64.6673 56.038 3.98475
62.2067 59.413 3.98502
61.8317 56.693 3.9824
58.3339 68.6801 4
60.3285 67.2508 2
73.7221 47.2057 0
74.6784 42.3946 0
74.9197 39.9526 2
74.2794 44.8159 2
72.1693 42.0857 2
73.0099 49.554 2
71.2511 46.5968 2
75 37.5 4
72.4062 39.8019 3.98434
71.784 44.3521 3.9862
69.8077 41.7889 3.97816
70.5773 48.812 3.98698
68.9174 46.0143 3.97905
74.6792 32.6053 0
73.7222 27.7943 0
67.2507 14.6715 0
72.1454 23.1494 0
70.616 26.2226 0.013235
68.8881 21.9578 0.0122098
66.6391 17.9687 0.0113344
65.8038 21.0205 0.0166416
74.9197 35.0474 2
74.2794 30.1841 2
72.1859 32.9434 2
71.2798 28.4331 2
65.694 12.7745 2
65.3258 16.0995 2
69.818 24.0619 2
68.3517 26.9516 2
64.7204 19.1868 2
66.7692 22.9302 2
63.8979 22.0263 2
72.4139 35.224 3.98432
71.8052 30.6769 3.9862
69.8433 33.2687 3.97819
68.9705 29.0387 3.97883
67.6172 24.9111 3.98092
66.2019 27.6329 3.97658
64.0165 10.9835 4
64.7668 23.8243 3.97964
63.8914 14.3235 3.99066
63.5183 17.4378 3.98545
62.917 20.3093 3.98152
62.1065 22.9317 3.97923
60.6847 11.095 3.99199
57.6131 11.4395 3.98711
72.1454 51.8506 0
69.9759 56.25 0
68.8389 53.1132 0.0124642
64.0165 64.0165 0
63.8874 60.7692 0.00955866
66.6129 57.1364 0.0111696
63.5057 57.7796 0.0153023
62.2255 65.694 2
58.8947 65.4163 2
69.7715 50.9868 2
67.7866 55.168 2
66.6564 52.2121 2
62.3376 62.4301 2
64.6675 56.0387 2
62.2067 59.4134 2
61.8317 56.6937 2
60.6694 63.9794 3.99215
57.0251 66.737 3.99314
57.5586 63.6976 3.98748
67.5138 50.1776 3.98065
65.7091 54.1777 3.98365
64.5485 51.3909 3.97888
60.7756 60.9459 3.98582
62.8307 55.0784 3.98263
60.6648 58.1717 3.98242
60.3391 55.8005 3.98145
56.25 69.9759 4
58.3339 68.6801 2
60.3285 67.2507 0
58.9216 9.65331 3.99248
62.2254 9.30607 4
73.0099 49.554 0
74.2788 44.8158 0
71.2511 46.5968 0.0132939
72.1693 42.0852 0.0146834
74.9194 39.9526 0
75 37.5 2
72.4062 39.8024 2
71.784 44.3525 2
69.8078 41.7891 2
70.5773 48.8114 2
68.9173 46.0143 2
72.4893 37.5118 3.98383
70.0436 39.6568 3.97688
69.4349 43.9068 3.97882
67.6032 41.4977 3.97518
68.2716 48.1071 3.97971
66.7176 45.441 3.97634
74.9197 35.0474 0
74.2794 30.1841 0
72.1858 32.9434 0.0145436
71.2797 28.4327 0.0135804
65.694 12.7746 0
65.3255 16.0996 0.0103497
69.8178 24.0607 0.0126188
68.3518 26.9516 0.0205503
66.7691 22.9306 0.0176426
64.72 19.1876 0.015608
63.8976 22.027 0.0193707
72.414 35.2241 2
71.8053 30.677 2
69.8435 33.2688 2
68.9705 29.0387 2
64.0165 10.9835 2
63.8916 14.3235 2
63.5186 17.437 2
67.6171 24.9109 2
66.2019 27.6325 2
62.9175 20.3085 2
64.7669 23.8236 2
62.1068 22.9311 2
60.6849 11.0949 2
57.6131 11.4389 2
70.0602 35.392 3.97708
69.4711 31.15 3.97875
67.6608 33.5902 3.97515
66.7788 29.6216 3.97584
65.533 25.6958 3.97801
64.1555 28.2513 3.97567
62.3426 12.6519 3.99141
62.87 24.6284 3.97844
62.2023 15.7755 3.98571
61.822 18.6718 3.98279
61.2306 21.3276 3.97966
60.4418 23.7133 3.97886
59.2475 12.7706 3.98601
55.8748 10.2262 3.98847
56.4065 13.1019 3.98404
69.7714 50.9878 0.0128557
62.2254 65.694 0
58.8945 65.4163 0.00736234
67.7862 55.1689 0.0117281
66.6564 52.2116 0.0179411
62.3374 62.4302 0.0084301
62.2067 59.413 0.0149806
64.6673 56.038 0.0152533
61.8317 56.693 0.0175989
60.6697 63.9794 2
57.0253 66.737 2
57.5585 63.6981 2
67.5137 50.1779 2
65.7093 54.1784 2
64.5485 51.3916 2
60.7755 60.9466 2
62.8308 55.0792 2
60.6647 58.1723 2
60.3391 55.8011 2
55.0705 67.9338 3.99343
59.2208 62.3732 3.98637
55.8047 64.9148 3.98874
56.3285 62.0986 3.98447
65.3416 49.4118 3.9775
63.7174 53.3005 3.98087
62.4558 50.6605 3.97731
59.3375 59.5684 3.9837
61.0905 54.3225 3.98173
59.2975 57.0275 3.9806
59.2548 55.1993 3.98179
48.1029 68.5819 3.99026
50.9482 69.9332 3.99387
54.0858 71.1327 4
56.25 69.976 2
58.3339 68.6801 0
57.0587 8.33322 3.99299
60.3285 7.74928 4
58.9219 9.65322 2
62.2255 9.30602 2
70.5773 48.812 0.0130212
71.784 44.3521 0.0137959
68.9174 46.0143 0.0209483
69.8077 41.7889 0.0218391
72.4062 39.8019 0.015657
75 37.5 0
72.4894 37.5122 2
70.0438 39.6569 2
69.4349 43.9069 2
67.6034 41.498 2
68.2715 48.1073 2
66.7176 45.4414 2
70.1312 37.5213 3.97633
67.8385 39.5121 3.97391
67.2307 43.4706 3.97598
65.5637 41.2112 3.97431
66.0775 47.42 3.97693
64.6624 44.8514 3.97546
72.4139 35.224 0.0156815
71.8052 30.6769 0.0137981
69.8433 33.2687 0.021812
68.9705 29.0387 0.0211716
64.0165 10.9835 0
63.8914 14.3235 0.00934122
63.5183 17.4378 0.0145531
67.6172 24.9111 0.0190833
66.2019 27.6329 0.0234173
64.7668 23.8243 0.0203564
62.917 20.3093 0.0184845
62.1065 22.9317 0.0207673
60.6847 11.095 0.00801088
57.6131 11.4395 0.0128936
70.0605 35.3922 2
69.4712 31.15 2
67.661 33.59 2
66.7788 29.6213 2
62.3428 12.652 2
62.2024 15.7749 2
61.8224 18.671 2
65.533 25.6953 2
64.1556 28.2509 2
61.2311 21.3269 2
62.8702 24.6278 2
60.4421 23.7128 2
59.2474 12.77 2
56.4065 13.1011 2
55.8748 10.2255 2
67.8745 35.5471 3.97423
67.2716 31.6213 3.97589
65.7047 33.9254 3.97398
64.6712 30.1888 3.97464
63.5493 26.408 3.97673
62.2681 28.7713 3.97612
60.7772 14.215 3.98562
61.0604 25.3262 3.9781
60.6182 17.115 3.98375
60.2331 19.8007 3.98113
59.6762 22.242 3.97838
58.9961 24.3041 3.97902
54.0378 9.12984 3.98913
57.9123 14.3203 3.98389
54.7875 12.0011 3.9851
55.3143 14.6323 3.98278
67.5138 50.1776 0.0193467
57.0251 66.737 0.00686105
60.6694 63.9794 0.00784971
57.5586 63.6976 0.012522
65.7091 54.1777 0.0163476
64.5485 51.3909 0.0211193
60.7756 60.9459 0.0141769
60.6648 58.1717 0.0175788
62.8307 55.0784 0.0173662
60.3391 55.8005 0.018549
55.0707 67.9339 2
59.2207 62.3739 2
55.8047 64.9152 2
56.3284 62.0991 2
65.3415 49.4124 2
63.7175 53.3014 2
62.4558 50.6612 2
59.3375 59.5692 2
61.0906 54.3232 2
59.2975 57.0281 2
59.2548 55.1998 2
53.0423 69.0015 3.99367
53.9668 66.0167 3.98938
57.8833 60.8801 3.98406
54.6845 63.2145 3.9855
55.2137 60.6267 3.98296
63.2068 48.6672 3.97609
61.7562 52.5863 3.97946
60.2903 50.0305 3.97642
58.0238 58.2748 3.98183
59.3422 53.9629 3.98094
58.1369 55.8294 3.97884
50.1094 67.8599 3.99004
47.4634 66.5863 3.98801
46.0566 69.1614 3.99051
48.1029 68.5823 2
48.8025 70.7244 3.99405
50.9485 69.9333 2
51.8506 72.1454 4
54.0858 71.1327 2
56.25 69.9759 0
55.103 7.13784 3.99325
58.3339 6.31992 4
57.0589 8.33306 2
60.3286 7.74926 2
58.9216 9.65331 0.0075242
62.2254 9.30607 0
68.2716 48.1071 0.0202929
69.4349 43.9068 0.0211753
66.7176 45.441 0.0236594
67.6032 41.4977 0.0248198
70.0436 39.6568 0.0231246
72.4893 37.5118 0.0161653
70.1314 37.5214 2
67.8388 39.5122 2
67.2308 43.4709 2
65.564 41.2116 2
66.0775 47.4205 2
64.6624 44.8519 2
67.934 37.5216 3.97313
65.7932 39.3707 3.97307
65.1852 43.0276 3.97508
63.7653 40.9322 3.97403
63.9769 46.721 3.97587
62.8193 44.2214 3.97616
70.0602 35.392 0.0229171
69.4711 31.15 0.021249
67.6608 33.5902 0.0248514
66.7788 29.6216 0.0241588
62.3426 12.6519 0.00859382
62.2023 15.7755 0.0142921
61.822 18.6718 0.0172137
65.533 25.6958 0.0219893
64.1555 28.2513 0.0243316
62.87 24.6284 0.0215636
61.2306 21.3276 0.020336
60.4418 23.7133 0.0211364
59.2475 12.7706 0.0139891
56.4065 13.1019 0.0159624
55.8748 10.2262 0.0115335
67.8748 35.547 2
67.2718 31.6211 2
65.705 33.9251 2
64.6713 30.1885 2
60.7772 14.2143 2
60.6183 17.1142 2
60.2337 19.7999 2
63.5494 26.4076 2
62.2682 28.7709 2
59.6767 22.2414 2
61.0607 25.3257 2
58.9965 24.3037 2
57.9122 14.3197 2
55.3142 14.6316 2
54.0378 9.12924 2
54.7875 12.0003 2
65.8818 35.6658 3.97319
65.1943 32.1513 3.97466
64.2923 34.2476 3.97401
62.6048 30.6304 3.97445
61.6642 27.0636 3.97614
60.8626 29.1319 3.97819
59.3137 15.657 3.98398
59.3485 25.7827 3.97936
59.1305 18.3402 3.98277
58.7524 20.8362 3.97938
58.3013 23.0741 3.97714
57.9867 24.6476 3.97958
52.1124 8.14861 3.98952
53.0583 11.0077 3.98609
56.679 15.7285 3.98309
53.8106 13.6674 3.98338
54.3785 15.9832 3.98256
55.0705 67.9338 0.00657131
65.3416 49.4118 0.0225047
55.8047 64.9148 0.0112571
59.2208 62.3732 0.0136257
56.3285 62.0986 0.015533
63.7174 53.3005 0.0191347
62.4558 50.6605 0.0226937
59.3375 59.5684 0.0163001
59.2975 57.0275 0.0194019
61.0905 54.3225 0.0182691
59.2548 55.1993 0.0182082
53.0426 69.0016 2
53.9668 66.0171 2
57.8832 60.8806 2
54.6843 63.2151 2
55.2135 60.6273 2
63.2068 48.6678 2
61.7563 52.5871 2
60.2903 50.0312 2
58.0238 58.2755 2
59.3423 53.9634 2
58.1369 55.8299 2
52.0704 67.003 3.98978
52.9534 64.2245 3.98649
56.652 59.5009 3.98289
[...]
POINT_DATA 3012
SCALARS Jp_lamdaP float 4
LOOKUP_TABLE default
1 1 1 1
1 1 1 1
1 1 1 1
0.999998 1 1 0.999998
1 1 1 1
1 1 1 1
0.999931 1 1 0.999931
1 1 1 1
1 1 1 1
1 1 1 1
1 1 1 1
0.999987 1 1 0.999987
0.999992 1 1 0.999992
0.999999 1 1 0.999999
1 1 1 1
0.999999 1 1 0.999999
1 1 1 1
1 1 1 1
0.999932 1 1 0.999932
1 1 1 1
0.999997 1 1 0.999997
1 1 1 1
0.999878 1 1 0.999878
0.999917 1 1 0.999917
1 1 1 1
0.999948 1 1 0.999948
0.999793 1 1 0.999793
1 1 1 1
1 1 1 1
1 1 1 1
1 1 1 1
0.999989 1 1 0.999989
1 1 1 1
1 1 1 1
0.99995 1 1 0.99995
1 1 1 1
0.999978 1 1 0.999978
0.999994 1 1 0.999994
0.999825 1 1 0.999825
1 1 1 1
1 1 1 1
0.999999 1 1 0.999999
1 1 1 1
0.999997 1 1 0.999997
0.999886 1 1 0.999886
1 1 1 1
0.999923 1 1 0.999923
0.999999 1 1 0.999999
1 1 1 1
1 1 1 1
0.999933 1 1 0.999933
0.999996 1 1 0.999996
0.999998 1 1 0.999998
1 1 1 1
1 1 1 1
0.999879 1 1 0.999879
0.999949 1 1 0.999949
0.999918 1 1 0.999918
0.999788 1 1 0.999788
1 1 1 1
0.999995 1 1 0.999995
0.999897 1 1 0.999897
0.999865 1 1 0.999865
0.999899 1 1 0.999899
0.999662 1 1 0.999662
0.99974 1 1 0.99974
1 1 1 1
0.999967 1 1 0.999967
0.99983 1 1 0.99983
0.999607 1 1 0.999607
1 1 1 1
1 1 1 1
1 1 1 1
0.999991 1 1 0.999991
1 1 1 1
1 1 1 1
0.999955 1 1 0.999955
1 1 1 1
0.999981 1 1 0.999981
0.999996 1 1 0.999996
0.999825 1 1 0.999825
1 1 1 1
1 1 1 1
0.999939 1 1 0.999939
0.999965 1 1 0.999965
0.999719 1 1 0.999719
0.999999 1 1 0.999999
0.999808 1 1 0.999808
0.999844 1 1 0.999844
0.999687 1 1 0.999687
1 1 1 1
1 1 1 1
1 1 1 1
1 1 1 1
1 1 1 1
0.999998 1 1 0.999998
0.999893 1 1 0.999893
1 1 1 1
0.999924 1 1 0.999924
1 1 1 1
0.999868 1 1 0.999868
0.99991 1 1 0.99991
0.99955 1 1 0.99955
0.999931 1 1 0.999931
0.999602 1 1 0.999602
0.999993 1 1 0.999993
0.999998 1 1 0.999998
1 1 1 1
1 1 1 1
0.999881 1 1 0.999881
0.999919 1 1 0.999919
0.999949 1 1 0.999949
0.999783 1 1 0.999783
1 1 1 1
0.999996 1 1 0.999996
0.999869 1 1 0.999869
0.999866 1 1 0.999866
1 1 1 1
0.999979 1 1 0.999979
0.9999 1 1 0.9999
0.99965 1 1 0.99965
0.999825 1 1 0.999825
0.999748 1 1 0.999748
0.999608 1 1 0.999608
0.999876 1 1 0.999876
0.999861 1 1 0.999861
0.99958 1 1 0.99958
0.999615 1 1 0.999615
0.999691 1 1 0.999691
0.999479 1 1 0.999479
1 1 1 1
0.99958 1 1 0.99958
0.999999 1 1 0.999999
0.999838 1 1 0.999838
0.999634 1 1 0.999634
0.999533 1 1 0.999533
1 1 1 1
0.999893 1 1 0.999893
1 1 1 1
1 1 1 1
0.999959 1 1 0.999959
1 1 1 1
0.999998 1 1 0.999998
0.999983 1 1 0.999983
0.999824 1 1 0.999824
1 1 1 1
1 1 1 1
0.999942 1 1 0.999942
0.999969 1 1 0.999969
0.99972 1 1 0.99972
1 1 1 1
0.999809 1 1 0.999809
0.999843 1 1 0.999843
0.999683 1 1 0.999683
1 1 1 1
1 1 1 1
0.999903 1 1 0.999903
0.99967 1 1 0.99967
0.999772 1 1 0.999772
0.999562 1 1 0.999562
0.999867 1 1 0.999867
0.999668 1 1 0.999668
0.999697 1 1 0.999697
0.999627 1 1 0.999627
1 1 1 1
1 1 1 1
1 1 1 1
1 1 1 1
1 1 1 1
1 1 1 1
1 1 1 1
0.999926 1 1 0.999926
0.999893 1 1 0.999893
1 1 1 1
1 1 1 1
0.99987 1 1 0.99987
0.999913 1 1 0.999913
0.99955 1 1 0.99955
0.999932 1 1 0.999932
0.999602 1 1 0.999602
0.999863 1 1 0.999863
0.999521 1 1 0.999521
0.999578 1 1 0.999578
0.999397 1 1 0.999397
0.999631 1 1 0.999631
0.999453 1 1 0.999453
1 1 1 1
0.999997 1 1 0.999997
0.99984 1 1 0.99984
0.999867 1 1 0.999867
1 1 1 1
0.999992 1 1 0.999992
0.999901 1 1 0.999901
0.999638 1 1 0.999638
0.999756 1 1 0.999756
0.999819 1 1 0.999819
0.999608 1 1 0.999608
0.999874 1 1 0.999874
0.999861 1 1 0.999861
0.999556 1 1 0.999556
0.999623 1 1 0.999623
1 1 1 1
0.999998 1 1 0.999998
0.999849 1 1 0.999849
0.999692 1 1 0.999692
0.999465 1 1 0.999465
0.999632 1 1 0.999632
0.999586 1 1 0.999586
0.999534 1 1 0.999534
1 1 1 1
0.999893 1 1 0.999893
0.999527 1 1 0.999527
0.9996 1 1 0.9996
0.999416 1 1 0.999416
0.999419 1 1 0.999419
0.999544 1 1 0.999544
0.99941 1 1 0.99941
1 1 1 1
0.999511 1 1 0.999511
0.999855 1 1 0.999855
0.999672 1 1 0.999672
0.999558 1 1 0.999558
0.999513 1 1 0.999513
0.999873 1 1 0.999873
0.999924 1 1 0.999924
0.999717 1 1 0.999717
0.999945 1 1 0.999945
1 1 1 1
1 1 1 1
0.999974 1 1 0.999974
0.999721 1 1 0.999721
1 1 1 1
0.999843 1 1 0.999843
0.999809 1 1 0.999809
0.999678 1 1 0.999678
1 1 1 1
1 1 1 1
0.999903 1 1 0.999903
0.99967 1 1 0.99967
0.999773 1 1 0.999773
0.999562 1 1 0.999562
0.999867 1 1 0.999867
0.999673 1 1 0.999673
0.999696 1 1 0.999696
0.99962 1 1 0.99962
1 1 1 1
0.999885 1 1 0.999885
0.999927 1 1 0.999927
0.999739 1 1 0.999739
0.999514 1 1 0.999514
0.999627 1 1 0.999627
0.999484 1 1 0.999484
0.999717 1 1 0.999717
0.999608 1 1 0.999608
0.999607 1 1 0.999607
0.999576 1 1 0.999576
0.99998 1 1 0.99998
1 1 1 1
1 1 1 1
1 1 1 1
1 1 1 1
1 1 1 1
1 1 1 1
1 1 1 1
1 1 1 1
0.999934 1 1 0.999934
0.999913 1 1 0.999913
0.999602 1 1 0.999602
0.99955 1 1 0.99955
0.999871 1 1 0.999871
1 1 1 1
0.999862 1 1 0.999862
0.999521 1 1 0.999521
0.999578 1 1 0.999578
0.999397 1 1 0.999397
0.999631 1 1 0.999631
0.999453 1 1 0.999453
0.999513 1 1 0.999513
0.999368 1 1 0.999368
0.999426 1 1 0.999426
0.999351 1 1 0.999351
0.999482 1 1 0.999482
0.999402 1 1 0.999402
0.999872 1 1 0.999872
0.999861 1 1 0.999861
0.999533 1 1 0.999533
0.99963 1 1 0.99963
1 1 1 1
0.999997 1 1 0.999997
0.999859 1 1 0.999859
0.999693 1 1 0.999693
0.999451 1 1 0.999451
0.999592 1 1 0.999592
0.999629 1 1 0.999629
0.999535 1 1 0.999535
1 1 1 1
0.999893 1 1 0.999893
0.999518 1 1 0.999518
0.9996 1 1 0.9996
0.999411 1 1 0.999411
0.999434 1 1 0.999434
1 1 1 1
0.999855 1 1 0.999855
0.999681 1 1 0.999681
0.999544 1 1 0.999544
0.999407 1 1 0.999407
0.999547 1 1 0.999547
0.999511 1 1 0.999511
0.999512 1 1 0.999512
0.999873 1 1 0.999873
0.999713 1 1 0.999713
0.999923 1 1 0.999923
0.999395 1 1 0.999395
0.999421 1 1 0.999421
0.999338 1 1 0.999338
0.999363 1 1 0.999363
0.999473 1 1 0.999473
0.999413 1 1 0.999413
0.999864 1 1 0.999864
0.999499 1 1 0.999499
0.999717 1 1 0.999717
0.999582 1 1 0.999582
0.999494 1 1 0.999494
0.999534 1 1 0.999534
0.999954 1 1 0.999954
0.999721 1 1 0.999721
0.999716 1 1 0.999716
0.999647 1 1 0.999647
0.999671 1 1 0.999671
1 1 1 1
1 1 1 1
0.999903 1 1 0.999903
0.999774 1 1 0.999774
0.999562 1 1 0.999562
0.999868 1 1 0.999868
0.999695 1 1 0.999695
0.999678 1 1 0.999678
0.999614 1 1 0.999614
1 1 1 1
0.999885 1 1 0.999885
0.999927 1 1 0.999927
0.999739 1 1 0.999739
0.999513 1 1 0.999513
0.999628 1 1 0.999628
0.999484 1 1 0.999484
0.999717 1 1 0.999717
0.999615 1 1 0.999615
0.999604 1 1 0.999604
0.99959 1 1 0.99959
1 1 1 1
0.999947 1 1 0.999947
0.999731 1 1 0.999731
0.999756 1 1 0.999756
0.999644 1 1 0.999644
0.999445 1 1 0.999445
0.999554 1 1 0.999554
0.999456 1 1 0.999456
0.999619 1 1 0.999619
0.999569 1 1 0.999569
0.999512 1 1 0.999512
0.999972 1 1 0.999972
0.999845 1 1 0.999845
0.999986 1 1 0.999986
0.999982 1 1 0.999982
1 1 1 1
1 1 1 1
1 1 1 1
1 1 1 1
1 1 1 1
1 1 1 1
1 1 1 1
1 1 1 1
1 1 1 1
1 1 1 1
1 1 1 1
0.999632 1 1 0.999632
0.999578 1 1 0.999578
0.999454 1 1 0.999454
0.999396 1 1 0.999396
0.999521 1 1 0.999521
0.999862 1 1 0.999862
0.999513 1 1 0.999513
0.999368 1 1 0.999368
0.999426 1 1 0.999426
0.999348 1 1 0.999348
0.999481 1 1 0.999481
0.999402 1 1 0.999402
0.999358 1 1 0.999358
0.999325 1 1 0.999325
0.999372 1 1 0.999372
0.999341 1 1 0.999341
0.999426 1 1 0.999426
0.999422 1 1 0.999422
0.99951 1 1 0.99951
0.9996 1 1 0.9996
0.999406 1 1 0.999406
0.999449 1 1 0.999449
1 1 1 1
0.999855 1 1 0.999855
0.999691 1 1 0.999691
0.999544 1 1 0.999544
0.999404 1 1 0.999404
0.999511 1 1 0.999511
0.999537 1 1 0.999537
0.999511 1 1 0.999511
0.999874 1 1 0.999874
0.99971 1 1 0.99971
0.999923 1 1 0.999923
0.999384 1 1 0.999384
0.999421 1 1 0.999421
0.999331 1 1 0.999331
0.999366 1 1 0.999366
0.999864 1 1 0.999864
0.999716 1 1 0.999716
0.999592 1 1 0.999592
0.999477 1 1 0.999477
0.999419 1 1 0.999419
0.999485 1 1 0.999485
0.9995 1 1 0.9995
0.999539 1 1 0.999539
0.999722 1 1 0.999722
0.999639 1 1 0.999639
0.999952 1 1 0.999952
0.999719 1 1 0.999719
0.999314 1 1 0.999314
0.999341 1 1 0.999341
0.999297 1 1 0.999297
0.999357 1 1 0.999357
0.999476 1 1 0.999476
0.999441 1 1 0.999441
0.999726 1 1 0.999726
0.999544 1 1 0.999544
0.999633 1 1 0.999633
0.99951 1 1 0.99951
0.999451 1 1 0.999451
0.999539 1 1 0.999539
0.999969 1 1 0.999969
0.999746 1 1 0.999746
0.999653 1 1 0.999653
0.999627 1 1 0.999627
0.999611 1 1 0.999611
1 1 1 1
0.999513 1 1 0.999513
0.999927 1 1 0.999927
0.999885 1 1 0.999885
0.999738 1 1 0.999738
0.999629 1 1 0.999629
0.999484 1 1 0.999484
0.999718 1 1 0.999718
0.999602 1 1 0.999602
0.999621 1 1 0.999621
0.999604 1 1 0.999604
1 1 1 1
0.999949 1 1 0.999949
0.999731 1 1 0.999731
0.999755 1 1 0.999755
0.999641 1 1 0.999641
0.999444 1 1 0.999444
0.999554 1 1 0.999554
0.999453 1 1 0.999453
0.999621 1 1 0.999621
0.999573 1 1 0.999573
0.99952 1 1 0.99952
0.999962 1 1 0.999962
0.999778 1 1 0.999778
0.999635 1 1 0.999635
0.999652 1 1 0.999652
0.999599 1 1 0.999599
0.99943 1 1 0.99943
0.999517 1 1 0.999517
0.999485 1 1 0.999485
0.999534 1 1 0.999534
0.999466 1 1 0.999466
0.999974 1 1 0.999974
0.999806 1 1 0.999806
0.999835 1 1 0.999835
0.999742 1 1 0.999742
0.999856 1 1 0.999856
0.99999 1 1 0.99999
0.999987 1 1 0.999987
1 1 1 1
0.999983 1 1 0.999983
1 1 1 1
1 1 1 1
1 1 1 1
1 1 1 1
1 1 1 1
1 1 1 1
1 1 1 1
1 1 1 1
1 1 1 1
1 1 1 1
1 1 1 1
0.999481 1 1 0.999481
0.999426 1 1 0.999426
0.999402 1 1 0.999402
0.999346 1 1 0.999346
0.999368 1 1 0.999368
0.999513 1 1 0.999513
0.999358 1 1 0.999358
0.999322 1 1 0.999322
0.999373 1 1 0.999373
0.999339 1 1 0.999339
0.999425 1 1 0.999425
0.999422 1 1 0.999422
0.999307 1 1 0.999307
0.999314 1 1 0.999314
0.99937 1 1 0.99937
0.999331 1 1 0.999331
0.999431 1 1 0.999431
0.999444 1 1 0.999444
0.999372 1 1 0.999372
0.999421 1 1 0.999421
0.999323 1 1 0.999323
0.999369 1 1 0.999369
0.999865 1 1 0.999865
0.999715 1 1 0.999715
0.999603 1 1 0.999603
0.999482 1 1 0.999482
0.999424 1 1 0.999424
0.9995 1 1 0.9995
0.999476 1 1 0.999476
0.999543 1 1 0.999543
0.999723 1 1 0.999723
0.999631 1 1 0.999631
0.99995 1 1 0.99995
0.999723 1 1 0.999723
0.999315 1 1 0.999315
0.999343 1 1 0.999343
0.999296 1 1 0.999296
0.999358 1 1 0.999358
0.999726 1 1 0.999726
0.999641 1 1 0.999641
0.999509 1 1 0.999509
0.999472 1 1 0.999472
0.999462 1 1 0.999462
0.999446 1 1 0.999446
0.999546 1 1 0.999546
0.999554 1 1 0.999554
0.999653 1 1 0.999653
0.999608 1 1 0.999608
0.999625 1 1 0.999625
0.999955 1 1 0.999955
0.999751 1 1 0.999751
0.999284 1 1 0.999284
0.999287 1 1 0.999287
0.999381 1 1 0.999381
0.999509 1 1 0.999509
0.999662 1 1 0.999662
0.999592 1 1 0.999592
0.999576 1 1 0.999576
0.999416 1 1 0.999416
0.999415 1 1 0.999415
0.999955 1 1 0.999955
0.999803 1 1 0.999803
0.99965 1 1 0.99965
0.999627 1 1 0.999627
0.999559 1 1 0.999559
0.999581 1 1 0.999581
1 1 1 1
0.99995 1 1 0.99995
0.999443 1 1 0.999443
0.999755 1 1 0.999755
0.999731 1 1 0.999731
0.999638 1 1 0.999638
0.999554 1 1 0.999554
0.99945 1 1 0.99945
0.999622 1 1 0.999622
0.999527 1 1 0.999527
0.999577 1 1 0.999577
0.999964 1 1 0.999964
0.999778 1 1 0.999778
0.99964 1 1 0.99964
0.999651 1 1 0.999651
0.999593 1 1 0.999593
0.999428 1 1 0.999428
0.999515 1 1 0.999515
0.999489 1 1 0.999489
0.999528 1 1 0.999528
0.999454 1 1 0.999454
0.999801 1 1 0.999801
0.999651 1 1 0.999651
0.999572 1 1 0.999572
0.999579 1 1 0.999579
0.999556 1 1 0.999556
0.999525 1 1 0.999525
0.999448 1 1 0.999448
0.999473 1 1 0.999473
0.999468 1 1 0.999468
0.99935 1 1 0.99935
0.999976 1 1 0.999976
0.999813 1 1 0.999813
0.999691 1 1 0.999691
0.999825 1 1 0.999825
0.999856 1 1 0.999856
0.999727 1 1 0.999727
0.99965 1 1 0.99965
0.999723 1 1 0.999723
0.999865 1 1 0.999865
0.999992 1 1 0.999992
0.999991 1 1 0.999991
1 1 1 1
0.999988 1 1 0.999988
1 1 1 1
1 1 1 1
1 1 1 1
1 1 1 1
1 1 1 1
1 1 1 1
1 1 1 1
1 1 1 1
1 1 1 1
1 1 1 1
1 1 1 1
0.999424 1 1 0.999424
0.999373 1 1 0.999373
0.999422 1 1 0.999422
0.999338 1 1 0.999338
0.999318 1 1 0.999318
0.999359 1 1 0.999359
0.999305 1 1 0.999305
0.999315 1 1 0.999315
0.999365 1 1 0.999365
0.999325 1 1 0.999325
0.999431 1 1 0.999431
0.999458 1 1 0.999458
0.999299 1 1 0.999299
0.999319 1 1 0.999319
0.999369 1 1 0.999369
0.999504 1 1 0.999504
0.999316 1 1 0.999316
0.999345 1 1 0.999345
0.999295 1 1 0.999295
0.999359 1 1 0.999359
0.999726 1 1 0.999726
0.999649 1 1 0.999649
0.999508 1 1 0.999508
0.999468 1 1 0.999468
0.999482 1 1 0.999482
0.999547 1 1 0.999547
0.999442 1 1 0.999442
0.999568 1 1 0.999568
0.999653 1 1 0.999653
0.999605 1 1 0.999605
0.999623 1 1 0.999623
0.99994 1 1 0.99994
0.999756 1 1 0.999756
0.999284 1 1 0.999284
0.999292 1 1 0.999292
0.999388 1 1 0.999388
0.999662 1 1 0.999662
0.999586 1 1 0.999586
0.999414 1 1 0.999414
0.999501 1 1 0.999501
0.999436 1 1 0.999436
0.999589 1 1 0.999589
0.999955 1 1 0.999955
0.999626 1 1 0.999626
0.999588 1 1 0.999588
0.99956 1 1 0.99956
0.999655 1 1 0.999655
0.999792 1 1 0.999792
0.999277 1 1 0.999277
0.99928 1 1 0.99928
0.999432 1 1 0.999432
0.999576 1 1 0.999576
0.999623 1 1 0.999623
0.999481 1 1 0.999481
0.999476 1 1 0.999476
0.999343 1 1 0.999343
0.999967 1 1 0.999967
0.999833 1 1 0.999833
0.999688 1 1 0.999688
0.999545 1 1 0.999545
0.99959 1 1 0.99959
0.999534 1 1 0.999534
0.999966 1 1 0.999966
0.999778 1 1 0.999778
0.999427 1 1 0.999427
0.99965 1 1 0.99965
0.999646 1 1 0.999646
0.999587 1 1 0.999587
0.999512 1 1 0.999512
0.999493 1 1 0.999493
0.999523 1 1 0.999523
0.999442 1 1 0.999442
0.999801 1 1 0.999801
0.999655 1 1 0.999655
0.99958 1 1 0.99958
0.999584 1 1 0.999584
0.999561 1 1 0.999561
0.999527 1 1 0.999527
0.999451 1 1 0.999451
0.999503 1 1 0.999503
0.99946 1 1 0.99946
0.999337 1 1 0.999337
0.999671 1 1 0.999671
0.999563 1 1 0.999563
0.999511 1 1 0.999511
0.99952 1 1 0.99952
0.999517 1.00001 1 0.999511
0.999433 1.00001 0.999882 0.999544
0.999342 1 1 0.999342
1.00002 1 1.0007 0.999318
0.99982 1 1 0.99982
0.999698 1 1 0.999698
0.999622 1 1 0.999622
0.999856 1 1 0.999856
0.999712 1 1 0.999712
0.999865 1 1 0.999865
0.999639 1 1 0.999639
0.999729 1 1 0.999729
0.999579 1 1 0.999579
0.999637 1 1 0.999637
0.999732 1 1 0.999732
0.99987 1 1 0.99987
0.999993 1 1 0.999993
0.999992 1 1 0.999992
1 1 1 1
0.999991 1 1 0.999991
1 1 1 1
1 1 1 1
1 1 1 1
1 1 1 1
1 1 1 1
1 1 1 1
1 1 1 1
1 1 1 1
1 1 1 1
1 1 1 1
1 1 1 1
0.999431 1 1 0.999431
0.99936 1 1 0.99936
0.999471 1 1 0.999471
0.999319 1 1 0.999319
0.999317 1 1 0.999317
0.999303 1 1 0.999303
0.9993 1 1 0.9993
0.999319 1 1 0.999319
0.999375 1 1 0.999375
0.9995 1 1 0.9995
0.999307 1 1 0.999307
0.999347 1 1 0.999347
0.999434 1 1 0.999434
0.999284 1 1 0.999284
0.999297 1 1 0.999297
0.999396 1 1 0.999396
0.999661 1 1 0.999661
0.999597 1 1 0.999597
0.999411 1 1 0.999411
0.999493 1 1 0.999493
0.999585 1 1 0.999585
0.999457 1 1 0.999457
0.999625 1 1 0.999625
0.999595 1 1 0.999595
0.99956 1 1 0.99956
0.999956 1 1 0.999956
0.999659 1 1 0.999659
0.999781 1 1 0.999781
0.999282 1 1 0.999282
0.999277 1 1 0.999277
0.99942 1 1 0.99942
0.999622 1 1 0.999622
0.999491 1 1 0.999491
0.999386 1 1.00004 0.999348
0.999583 1 1 0.999583
0.999479 1 1 0.999479
0.999977 1 1 0.999977
0.999833 1 1 0.999833
0.99959 1 1 0.99959
0.999538 1 1 0.999538
0.99955 1 1 0.99955
0.999679 1 1 0.999679
0.999299 1 1 0.999299
0.999297 1 1 0.999297
0.999556 1.0001 0.999905 0.999546
0.999677 1.00009 1 0.999589
0.999565 1 1 0.999565
1.00057 1 1.00127 0.999305
0.999401 1 1 0.999401
0.999996 1 1 0.999996
0.999893 1 1 0.999893
0.999837 1 1 0.999837
0.999697 1 1 0.999697
0.999577 1 1 0.999577
0.999481 1 1 0.999481
0.999568 1 1 0.999568
0.999508 1 1 0.999508
0.999801 1 1 0.999801
0.99966 1 1 0.99966
0.999529 1 1 0.999529
0.999589 1 1 0.999589
0.999589 1 1 0.999589
0.999565 1 1 0.999565
0.999455 1 1 0.999455
0.999534 1 1 0.999534
0.999453 1 1 0.999453
0.999324 1 1 0.999324
0.999668 1 1 0.999668
0.999571 1 1 0.999571
0.999519 1 1 0.999519
0.999526 1 1 0.999526
0.999509 1 1 0.999508
0.999498 1 0.999957 0.99954
0.999356 1 1 0.999356
0.999791 1 1.00048 0.999312
0.999598 1 1 0.999598
0.999428 1 1 0.999428
0.999511 1 1 0.999511
0.999455 1 1.00001 0.999441
0.999847 1.00057 0.999737 0.999541
0.999323 1 1 0.999323
1.00046 1 1.00121 0.999251
0.999705 1 1 0.999705
0.999622 1 1 0.999622
0.999558 1 1 0.999558
0.999865 1 1 0.999865
0.999734 1 1 0.999734
0.999628 1 1 0.999628
0.99987 1 1 0.99987
0.999731 1 1 0.999731
0.99957 1 1 0.99957
0.999648 1 1 0.999648
0.999527 1 1 0.999527
0.999566 1 1 0.999566
0.999658 1 1 0.999658
0.999748 1 1 0.999748
0.99987 1 1 0.99987
0.999992 1 1 0.999992
0.999993 1 1 0.999993
1 1 1 1
0.999993 1 1 0.999993
1 1 1 1
1 1 1 1
1 1 1 1
1 1 1 1
1 1 1 1
0.999999 1 1 0.999999
1 1 1 1
1 1 1 1
1 1 1 1
1 1 1 1
1 1 1 1
1 1 1 1
0.999495 1 1 0.999495
0.999381 1 1 0.999381
0.999319 1 1 0.999319
0.999301 1 1 0.999301
0.999313 1 1 0.999313
0.999341 1 1 0.999341
0.999448 1 1 0.999448
0.999338 1 1 0.999338
0.999368 1 1 0.999368
0.999446 1 1 0.999446
0.999286 1 1 0.999286
0.999275 1 1 0.999275
0.999409 1 1 0.999409
0.99962 1 1 0.99962
0.999507 1 1 0.999507
0.999353 1 1 0.999353
0.99959 1 1 0.99959
0.999478 1 1 0.999478
0.999589 1 1 0.999589
0.999542 1 1 0.999542
0.999556 1 1 0.999556
0.999988 1 1 0.999988
0.999834 1 1 0.999834
0.999671 1 1 0.999671
0.999301 1 1 0.999301
0.999994 1 1 0.999994
0.999885 1 1 0.999885
0.999322 1.00002 1 0.999298
0.999571 1.00005 1 0.999525
0.999573 1 1 0.999573
0.999489 1 1.00011 0.999383
0.999886 1 1.00058 0.999311
0.999623 1.00004 1 0.999587
0.999858 1 1 0.999858
0.999697 1 1 0.999697
0.999566 1 1 0.999566
0.999526 1 1 0.999526
0.999469 1 1 0.999469
0.999579 1 1 0.999579
0.999318 1 1 0.999317
0.999652 1.00027 1 0.999382
0.999696 1.00043 0.999601 0.999661
0.99941 1 1 0.99941
0.999524 1 1 0.999524
1.00156 1 1.00228 0.999272
0.999892 1 1 0.999892
0.999876 1 1 0.999876
0.999789 1 1 0.999789
0.999703 1 1 0.999703
0.999608 1 1 0.999608
0.99949 1 1 0.99949
0.999416 1 1 0.999416
0.999528 1 1 0.999528
0.999665 1 1 0.999665
0.999578 1 1 0.999578
0.999505 1 1 0.999505
0.999537 1 1 0.999537
0.999532 1 1 0.999532
0.999527 1 1 0.999527
0.999371 1 1 0.999371
0.999616 1 1.00031 0.999306
0.999598 1 1 0.999598
0.999443 1 1 0.999443
0.999511 1 1 0.999511
0.999552 1 1.00012 0.999428
0.999632 1.00028 0.999816 0.999534
0.999413 1.00009 1 0.999327
1.00035 1 1.0011 0.99925
0.999527 1 1 0.999527
1.0041 1.00519 0.999451 0.99947
0.999463 1 1 0.999463
1.00003 1 1.00071 0.999326
0.997283 1.00062 0.997327 0.999339
1.0007 1 1.00149 0.999206
1.00531 1.00742 0.998589 0.999317
0.999622 1 1 0.999622
0.999558 1 1 0.999558
0.999514 1 1 0.999514
0.99987 1 1 0.99987
0.99973 1 1 0.99973
0.99966 1 1 0.99966
0.999562 1 1 0.999562
0.99987 1 1 0.99987
0.999741 1 1 0.999741
0.999525 1 1 0.999525
0.999657 1 1 0.999657
0.999575 1 1 0.999575
0.999505 1 1 0.999505
0.999595 1 1 0.999595
0.999666 1 1 0.999666
0.999732 1 1 0.999732
0.99985 1 1 0.99985
0.999765 1 1 0.999765
0.99985 1 1 0.99985
0.999992 1 1 0.999992
0.999992 1 1 0.999992
1 1 1 1
0.999992 1 1 0.999992
1 1 1 1
1 1 1 1
1 1 1 1
1 1 1 1
1 1 1 1
1 1 1 1
0.999998 1 1 0.999998
1 1 1 1
1 1 1 1
1 1 1 1
1 1 1 1
1 1 1 1
1 1 1 1
0.999462 1 1 0.999462
0.999334 1 1 0.999334
0.999318 1 1 0.999318
0.999338 1 1 0.999338
0.999375 1 1 0.999375
0.999452 1 1 0.999452
0.999478 1.00009 1 0.999389
1.00124 1.0064 0.995308 0.999557
1.00243 1.00318 0.999705 0.999542
0.999919 1 1 0.999919
0.999302 1 1 0.999302
0.999344 1.00005 1 0.999299
0.999504 1 1 0.999504
0.999581 1 1 0.999581
0.999814 1 1.00045 0.999366
0.999435 1 1.00012 0.999317
0.999585 1 1 0.999585
0.999565 1 1 0.999565
0.999545 1 1 0.999545
0.999457 1 1 0.999457
0.999993 1 1 0.999993
0.999581 1 1 0.999581
0.999879 1 1 0.999879
0.999696 1 1 0.999696
0.999877 1 1 0.999877
0.999312 1 1 0.999312
0.999901 1 1 0.999901
0.999875 1 1 0.999875
0.999772 1 1 0.999772
0.999749 1.00036 1 0.999385
0.999343 1.00024 0.999469 0.999634
0.999562 1 1.00003 0.999529
1.00169 1 1.00242 0.999265
0.999577 1 1.00016 0.999415
0.999715 1 1 0.999715
0.999604 1 1 0.999604
0.999521 1 1 0.999521
0.999466 1 1.00004 0.999428
0.999498 1 1 0.999498
0.999863 1.00052 1.00004 0.999303
0.998073 1.00117 0.997374 0.999528
0.99957 1.00037 0.999716 0.999487
1.00077 1 1.00149 0.999289
1.00107 1 1.00163 0.999446
0.999774 1 1 0.999774
0.999733 1 1 0.999733
0.999684 1 1 0.999684
0.999615 1 1 0.999615
0.999535 1 1 0.999535
0.999438 1 1 0.999438
1.001 1 1.00161 0.999393
0.999597 1 1 0.999597