# vtk DataFile Version 2.0
Wound Healing Simulation
ASCII
DATASET UNSTRUCTURED_GRID
POINTS 3012 float
69.9759 18.75 4
67.2507 60.3285 4
69.976 18.75 2
73.0099 25.446 4
71.1327 20.9142 4
68.6801 16.6661 4
67.8276 19.9222 3.98901
67.2507 60.3286 2
71.1327 54.0858 4
68.6801 58.3339 4
65.6939 62.2254 4
65.314 59.0059 3.99051
74.6784 42.3946 4
73.7221 47.2057 4
69.9759 18.75 0
73.0099 25.446 2
68.6801 16.6661 2
71.1327 20.9142 2
67.8278 19.9226 2
74.6792 32.6053 4
73.7222 27.7943 4
72.1454 23.1494 4
70.6166 26.2215 3.98794
68.8881 21.9558 3.98861
67.2507 14.6715 4
66.6389 17.9669 3.98976
65.8043 21.0178 3.9849
67.2507 60.3285 0
71.1327 54.0858 2
68.6801 58.3339 2
65.694 62.2255 2
65.3141 59.006 2
72.1454 51.8506 4
69.9759 56.25 4
68.8391 53.1149 3.98863
64.0165 64.0165 4
66.6127 57.1381 3.98997
63.8872 60.7702 3.9914
63.5059 57.782 3.98597
60.3285 67.2507 4
74.6792 42.3947 2
73.7222 47.2057 2
74.9194 39.9526 4
74.2788 44.8158 4
72.1699 42.0852 3.98704
73.0099 49.554 4
71.2517 46.5971 3.98801
73.0099 25.446 0
71.1327 20.9142 0
68.6801 16.6661 0
67.8276 19.9222 0.0109932
74.6792 32.6053 2
73.7222 27.7943 2
67.2508 14.6715 2
72.1455 23.1494 2
70.6167 26.2226 2
66.6391 17.967 2
68.8884 21.9565 2
65.8045 21.0176 2
74.9197 35.0474 4
74.2794 30.1841 4
72.1866 32.9435 3.98738
71.2804 28.4322 3.98785
69.8181 24.059 3.9883
68.3538 26.9495 3.98224
66.7701 22.9279 3.9843
65.694 12.7746 4
65.3253 16.0982 3.99073
64.7203 19.1851 3.98563
63.8991 22.0233 3.98266
71.1327 54.0858 0
65.6939 62.2254 0
68.6801 58.3339 0
65.314 59.0059 0.00949139
72.1455 51.8506 2
69.9759 56.25 2
68.8394 53.1143 2
64.0165 64.0165 2
66.6129 57.1381 2
63.8873 60.7703 2
63.506 57.7822 2
62.2254 65.694 4
58.8941 65.4169 3.99253
69.7718 50.9891 3.98825
67.7861 55.1707 3.98936
66.6578 52.2141 3.98438
62.3372 62.431 3.99205
64.6678 56.0405 3.9861
62.2068 59.4151 3.98621
61.8325 56.696 3.98406
58.3339 68.6801 4
60.3285 67.2508 2
73.7221 47.2057 0
74.6784 42.3946 0
74.9197 39.9526 2
74.2794 44.8159 2
72.1699 42.085 2
73.0099 49.554 2
71.2517 46.5964 2
75 37.5 4
72.4068 39.802 3.98636
71.7846 44.3521 3.98768
69.8097 41.7894 3.98084
70.5778 48.8127 3.98813
68.9194 46.0155 3.98169
74.6792 32.6053 0
73.7222 27.7943 0
67.2507 14.6715 0
72.1454 23.1494 0
70.6166 26.2215 0.0120562
68.8881 21.9558 0.011389
66.6389 17.9669 0.0102445
65.8043 21.0178 0.0150967
74.9197 35.0474 2
74.2794 30.1841 2
72.1865 32.9438 2
71.2804 28.433 2
65.694 12.7745 2
65.3254 16.0982 2
69.8183 24.06 2
68.3537 26.9495 2
64.7204 19.1848 2
66.7702 22.9277 2
63.8993 22.0231 2
72.4147 35.2242 3.98652
71.8059 30.6768 3.98786
69.8458 33.2683 3.9812
68.9728 29.0372 3.98156
67.6188 24.9086 3.98338
66.206 27.6297 3.97997
64.0165 10.9835 4
64.7692 23.8205 3.98214
63.8913 14.3227 3.99149
63.5183 17.4356 3.98635
62.9179 20.306 3.98321
62.1093 22.9272 3.98158
60.6845 11.0944 3.9922
57.6129 11.4387 3.98735
72.1454 51.8506 0
69.9759 56.25 0
68.8391 53.1149 0.0113669
64.0165 64.0165 0
63.8872 60.7702 0.00859632
66.6127 57.1381 0.0100281
63.5059 57.782 0.0140308
62.2255 65.694 2
58.8943 65.417 2
69.772 50.9883 2
67.7864 55.1705 2
66.658 52.2143 2
62.3373 62.431 2
64.6679 56.0408 2
62.2068 59.4154 2
61.8326 56.6963 2
60.6691 63.9801 3.99229
57.0245 66.7374 3.99284
57.5581 63.6983 3.98747
67.5157 50.1798 3.98335
65.71 54.1803 3.98548
64.5516 51.3945 3.98181
60.7755 60.9477 3.9868
62.8318 55.0816 3.98437
60.6653 58.1743 3.98402
60.3405 55.8041 3.98327
56.25 69.9759 4
58.3339 68.6801 2
60.3285 67.2507 0
58.9214 9.65282 3.99254
62.2254 9.30607 4
73.0099 49.554 0
74.2788 44.8158 0
71.2517 46.5971 0.011988
72.1699 42.0852 0.0129602
74.9194 39.9526 0
75 37.5 2
72.4068 39.802 2
71.7846 44.3517 2
69.8096 41.7892 2
70.578 48.8118 2
68.9193 46.0152 2
72.4901 37.512 3.98606
70.0459 39.6571 3.97995
69.4368 43.9075 3.98136
67.607 41.4988 3.97827
68.2736 48.1088 3.98243
66.7215 45.4431 3.97948
74.9197 35.0474 0
74.2794 30.1841 0
72.1866 32.9435 0.0126227
71.2804 28.4322 0.0121469
65.694 12.7746 0
65.3253 16.0982 0.00927367
69.8181 24.059 0.0117042
68.3538 26.9495 0.017763
66.7701 22.9279 0.0157049
64.7203 19.1851 0.0143676
63.8991 22.0233 0.0173386
72.4147 35.2244 2
71.8059 30.6773 2
69.8457 33.2684 2
68.9726 29.0374 2
64.0165 10.9835 2
63.8914 14.3227 2
63.5184 17.4353 2
67.6188 24.9084 2
66.2059 27.6294 2
62.9181 20.3058 2
64.7692 23.8202 2
62.1093 22.9272 2
60.6846 11.0943 2
57.6129 11.4383 2
70.0629 35.3919 3.98055
69.4734 31.1491 3.98148
67.6653 33.5892 3.97859
66.7831 29.6192 3.97918
65.5364 25.6921 3.98112
64.162 28.2472 3.97924
62.3425 12.6513 3.99192
62.8741 24.6236 3.98129
62.2022 15.7736 3.98661
61.8224 18.6691 3.98413
61.2324 21.3236 3.98165
60.446 23.7083 3.98139
59.2474 12.7695 3.98683
55.8745 10.2256 3.98837
56.4067 13.1011 3.98449
69.7718 50.9891 0.0117505
62.2254 65.694 0
58.8941 65.4169 0.00747142
67.7861 55.1707 0.010643
66.6578 52.2141 0.0156236
62.3372 62.431 0.00794979
62.2068 59.4151 0.0137908
64.6678 56.0405 0.0138974
61.8325 56.696 0.0159393
60.6693 63.9802 2
57.0247 66.7375 2
57.5581 63.6987 2
67.5158 50.1799 2
65.7103 54.1806 2
64.5517 51.3948 2
60.7755 60.9482 2
62.8321 55.0819 2
60.6654 58.1747 2
60.3407 55.8043 2
55.07 67.9341 3.99316
59.2205 62.3745 3.98703
55.8039 64.9151 3.98819
56.3283 62.099 3.98471
65.3454 49.4151 3.98083
63.7194 53.3041 3.98327
62.4608 50.6651 3.9805
59.3378 59.5703 3.98472
61.0924 54.3265 3.9836
59.2986 57.0307 3.98255
59.2566 55.2034 3.98347
48.1021 68.5818 3.99
50.9479 69.9333 3.9937
54.0858 71.1327 4
56.25 69.976 2
58.3339 68.6801 0
57.0584 8.33282 3.993
60.3285 7.74928 4
58.9216 9.65276 2
62.2255 9.30602 2
70.5778 48.8127 0.0118669
71.7846 44.3521 0.01232
68.9194 46.0155 0.0183137
69.8097 41.7894 0.0191602
72.4068 39.802 0.0136363
75 37.5 0
72.49 37.5121 2
70.0458 39.6569 2
69.4367 43.9073 2
67.6069 41.4988 2
68.2736 48.1087 2
66.7213 45.4432 2
70.1338 37.5214 3.97973
67.8428 39.5128 3.9774
67.2344 43.4721 3.97894
65.5695 41.2126 3.97751
66.0814 47.4228 3.98013
64.6682 44.8542 3.9787
72.4147 35.2242 0.0134777
71.8059 30.6768 0.0121422
69.8458 33.2683 0.0188029
68.9728 29.0372 0.0184375
64.0165 10.9835 0
63.8913 14.3227 0.00851414
63.5183 17.4356 0.0136471
67.6188 24.9086 0.0166205
66.206 27.6297 0.0200266
64.7692 23.8205 0.0178555
62.9179 20.306 0.0167865
62.1093 22.9272 0.018417
60.6845 11.0944 0.00779937
57.6129 11.4387 0.0126513
70.0628 35.392 2
69.4732 31.1493 2
67.6651 33.589 2
66.7828 29.6191 2
62.3426 12.6513 2
62.2023 15.7733 2
61.8226 18.6689 2
65.5363 25.6919 2
64.1617 28.247 2
61.2325 21.3235 2
62.8741 24.6235 2
60.4459 23.7084 2
59.2474 12.7691 2
56.4067 13.1007 2
55.8745 10.2252 2
67.8794 35.5467 3.97809
67.2759 31.6197 3.97909
65.7114 33.9242 3.97763
64.6779 30.1858 3.97809
63.5549 26.4033 3.98026
62.2769 28.7664 3.97964
60.7772 14.2133 3.98665
61.0664 25.3208 3.98119
60.6184 17.1129 3.98476
60.2341 19.7975 3.98272
59.6791 22.2376 3.98058
59.0016 24.2988 3.9818
54.0374 9.12921 3.98917
57.9126 14.319 3.98466
54.7875 12.0008 3.98502
55.3148 14.6318 3.98336
67.5157 50.1798 0.0166465
57.0245 66.7374 0.00715827
60.6691 63.9801 0.00770607
57.5581 63.6983 0.0125284
65.71 54.1803 0.0145232
64.5516 51.3945 0.018189
60.7755 60.9477 0.0131994
60.6653 58.1743 0.0159797
62.8318 55.0816 0.0156318
60.3405 55.8041 0.0167335
55.0702 67.9342 2
59.2205 62.375 2
55.8039 64.9154 2
56.3283 62.0994 2
65.3454 49.4154 2
63.7197 53.3045 2
62.4608 50.6653 2
59.3379 59.5708 2
61.0927 54.3267 2
59.2988 57.031 2
59.2568 55.2035 2
53.0419 69.0017 3.99347
53.9659 66.0169 3.98884
57.8835 60.8813 3.98478
54.6839 63.2141 3.9852
55.214 60.6266 3.98347
63.2129 48.6715 3.97973
61.7596 52.5908 3.98216
60.2974 50.0357 3.97983
58.0245 58.2769 3.98335
59.3448 53.9674 3.98281
58.1386 55.8335 3.98114
50.1085 67.8599 3.98972
47.4623 66.586 3.98753
46.056 69.1612 3.99023
48.1022 68.5822 2
48.8022 70.7244 3.9939
50.9481 69.9334 2
51.8506 72.1454 4
54.0858 71.1327 2
56.25 69.9759 0
55.1027 7.13749 3.99334
58.3339 6.31992 4
57.0586 8.33273 2
60.3286 7.74926 2
58.9214 9.65282 0.00745675
62.2254 9.30607 0
68.2736 48.1088 0.0175729
69.4368 43.9075 0.0186446
66.7215 45.4431 0.0205185
67.607 41.4988 0.0217275
70.0459 39.6571 0.0200508
72.4901 37.512 0.0139383
70.1336 37.5213 2
67.8427 39.5127 2
67.2342 43.4721 2
65.5693 41.2127 2
66.0814 47.423 2
64.668 44.8543 2
67.9387 37.5218 3.97697
65.7996 39.3716 3.97675
65.1907 43.0296 3.97804
63.7728 40.9338 3.97755
63.9829 46.7246 3.97916
62.827 44.2243 3.97925
70.0629 35.3919 0.0194548
69.4734 31.1491 0.0185208
67.6653 33.5892 0.0214082
66.7831 29.6192 0.0208171
62.3425 12.6513 0.00807772
62.2022 15.7736 0.0133925
61.8224 18.6691 0.0158653
65.5364 25.6921 0.0188756
64.162 28.2472 0.0207627
62.8741 24.6236 0.0187097
61.2324 21.3236 0.0183456
60.446 23.7083 0.0186057
59.2474 12.7695 0.013171
56.4067 13.1011 0.0155133
55.8745 10.2256 0.0116301
67.8793 35.5465 2
67.2757 31.6196 2
65.7112 33.9239 2
64.6775 30.1855 2
60.7772 14.2129 2
60.6185 17.1125 2
60.2343 19.7974 2
63.5547 26.4031 2
62.2765 28.7663 2
59.6792 22.2377 2
61.0663 25.3208 2
59.0014 24.2991 2
57.9126 14.3186 2
55.3148 14.6315 2
54.0374 9.12878 2
54.7875 12.0003 2
65.8891 35.6653 3.97717
65.2008 32.1494 3.97788
64.3008 34.2462 3.97717
62.614 30.6266 3.97807
61.6722 27.058 3.98002
60.8731 29.1268 3.98135
59.314 15.6552 3.9848
59.3561 25.7769 3.9824
59.131 18.3378 3.98383
58.7542 20.8327 3.98126
58.3054 23.0696 3.97967
57.9932 24.6424 3.98268
52.1121 8.14799 3.98968
53.0581 11.0073 3.98596
56.6796 15.7272 3.98391
53.811 13.6675 3.98323
54.3792 15.9828 3.98326
55.07 67.9341 0.00683555
65.3454 49.4151 0.01917
55.8039 64.9151 0.0118062
59.2205 62.3745 0.0129683
56.3283 62.099 0.015286
63.7194 53.3041 0.0167273
62.4608 50.6651 0.0195043
59.3378 59.5703 0.0152823
59.2986 57.0307 0.0174516
61.0924 54.3265 0.0164021
59.2566 55.2034 0.016527
53.0421 69.0018 2
53.966 66.0173 2
57.8835 60.8818 2
54.6839 63.2146 2
55.214 60.6271 2
63.2129 48.6718 2
61.7599 52.591 2
60.2974 50.0358 2
58.0247 58.2774 2
59.3451 53.9675 2
58.1388 55.8336 2
52.0695 67.0032 3.98937
52.9527 64.2241 3.98583
56.6525 59.502 3.98382
[...]
POINT_DATA 3012
SCALARS Jp_lamdaP float 4
LOOKUP_TABLE default
1 1 1 1
1 1 1 1
1 1 1 1
1 1 1 1
1 1 1 1
1 1 1 1
0.999968 1 1 0.999968
1 1 1 1
1 1 1 1
1 1 1 1
1 1 1 1
0.999999 1 1 0.999999
1 1 1 1
1 1 1 1
1 1 1 1
1 1 1 1
1 1 1 1
1 1 1 1
0.999969 1 1 0.999969
1 1 1 1
1 1 1 1
1 1 1 1
0.999937 1 1 0.999937
0.99996 1 1 0.99996
1 1 1 1
0.999977 1 1 0.999977
0.99989 1 1 0.99989
1 1 1 1
1 1 1 1
1 1 1 1
1 1 1 1
0.999999 1 1 0.999999
1 1 1 1
1 1 1 1
0.999981 1 1 0.999981
1 1 1 1
0.999996 1 1 0.999996
1 1 1 1
0.999911 1 1 0.999911
1 1 1 1
1 1 1 1
1 1 1 1
1 1 1 1
1 1 1 1
0.999952 1 1 0.999952
1 1 1 1
0.999966 1 1 0.999966
1 1 1 1
1 1 1 1
1 1 1 1
0.999969 1 1 0.999969
1 1 1 1
1 1 1 1
1 1 1 1
1 1 1 1
0.999938 1 1 0.999938
0.999978 1 1 0.999978
0.99996 1 1 0.99996
0.999888 1 1 0.999888
1 1 1 1
1 1 1 1
0.999956 1 1 0.999956
0.999929 1 1 0.999929
0.999949 1 1 0.999949
0.999815 1 1 0.999815
0.999858 1 1 0.999858
1 1 1 1
0.999984 1 1 0.999984
0.999911 1 1 0.999911
0.999768 1 1 0.999768
1 1 1 1
1 1 1 1
1 1 1 1
0.999999 1 1 0.999999
1 1 1 1
1 1 1 1
0.999984 1 1 0.999984
1 1 1 1
0.999997 1 1 0.999997
1 1 1 1
0.999911 1 1 0.999911
1 1 1 1
1 1 1 1
0.999974 1 1 0.999974
0.99999 1 1 0.99999
0.999848 1 1 0.999848
1 1 1 1
0.9999 1 1 0.9999
0.999923 1 1 0.999923
0.999817 1 1 0.999817
1 1 1 1
1 1 1 1
1 1 1 1
1 1 1 1
1 1 1 1
1 1 1 1
0.999954 1 1 0.999954
1 1 1 1
0.999967 1 1 0.999967
1 1 1 1
0.999947 1 1 0.999947
0.99996 1 1 0.99996
0.999753 1 1 0.999753
0.99997 1 1 0.99997
0.999782 1 1 0.999782
1 1 1 1
1 1 1 1
1 1 1 1
1 1 1 1
0.999939 1 1 0.999939
0.999961 1 1 0.999961
0.999978 1 1 0.999978
0.999885 1 1 0.999885
1 1 1 1
1 1 1 1
0.99994 1 1 0.99994
0.99993 1 1 0.99993
1 1 1 1
0.999992 1 1 0.999992
0.99995 1 1 0.99995
0.999807 1 1 0.999807
0.999908 1 1 0.999908
0.999864 1 1 0.999864
0.999769 1 1 0.999769
0.999952 1 1 0.999952
0.999928 1 1 0.999928
0.99977 1 1 0.99977
0.999785 1 1 0.999785
0.999831 1 1 0.999831
0.9997 1 1 0.9997
1 1 1 1
0.999754 1 1 0.999754
1 1 1 1
0.999916 1 1 0.999916
0.999783 1 1 0.999783
0.999721 1 1 0.999721
1 1 1 1
0.99994 1 1 0.99994
1 1 1 1
1 1 1 1
0.999986 1 1 0.999986
1 1 1 1
1 1 1 1
0.999998 1 1 0.999998
0.999911 1 1 0.999911
1 1 1 1
1 1 1 1
0.999976 1 1 0.999976
0.999992 1 1 0.999992
0.999849 1 1 0.999849
1 1 1 1
0.9999 1 1 0.9999
0.999924 1 1 0.999924
0.999814 1 1 0.999814
1 1 1 1
1 1 1 1
0.999948 1 1 0.999948
0.99982 1 1 0.99982
0.999879 1 1 0.999879
0.999746 1 1 0.999746
0.999936 1 1 0.999936
0.999804 1 1 0.999804
0.999823 1 1 0.999823
0.999775 1 1 0.999775
1 1 1 1
1 1 1 1
1 1 1 1
1 1 1 1
1 1 1 1
1 1 1 1
1 1 1 1
0.999968 1 1 0.999968
0.999956 1 1 0.999956
1 1 1 1
1 1 1 1
0.999948 1 1 0.999948
0.999962 1 1 0.999962
0.999753 1 1 0.999753
0.999971 1 1 0.999971
0.999782 1 1 0.999782
0.999946 1 1 0.999946
0.999741 1 1 0.999741
0.999768 1 1 0.999768
0.999658 1 1 0.999658
0.999799 1 1 0.999799
0.999688 1 1 0.999688
1 1 1 1
1 1 1 1
0.999923 1 1 0.999923
0.99993 1 1 0.99993
1 1 1 1
1 1 1 1
0.999951 1 1 0.999951
0.9998 1 1 0.9998
0.999869 1 1 0.999869
0.999905 1 1 0.999905
0.999769 1 1 0.999769
0.99995 1 1 0.99995
0.999928 1 1 0.999928
0.999754 1 1 0.999754
0.99979 1 1 0.99979
1 1 1 1
1 1 1 1
0.999921 1 1 0.999921
0.999832 1 1 0.999832
0.999691 1 1 0.999691
0.999781 1 1 0.999781
0.999759 1 1 0.999759
0.999721 1 1 0.999721
1 1 1 1
0.99994 1 1 0.99994
0.999744 1 1 0.999744
0.999776 1 1 0.999776
0.999665 1 1 0.999665
0.999661 1 1 0.999661
0.999737 1 1 0.999737
0.999655 1 1 0.999655
1 1 1 1
0.999711 1 1 0.999711
0.999927 1 1 0.999927
0.999803 1 1 0.999803
0.999734 1 1 0.999734
0.999709 1 1 0.999709
0.999935 1 1 0.999935
0.999953 1 1 0.999953
0.999823 1 1 0.999823
0.999978 1 1 0.999978
1 1 1 1
1 1 1 1
0.999994 1 1 0.999994
0.999849 1 1 0.999849
1 1 1 1
0.999924 1 1 0.999924
0.999901 1 1 0.999901
0.999811 1 1 0.999811
1 1 1 1
1 1 1 1
0.999948 1 1 0.999948
0.99982 1 1 0.99982
0.999879 1 1 0.999879
0.999746 1 1 0.999746
0.999936 1 1 0.999936
0.999807 1 1 0.999807
0.999823 1 1 0.999823
0.999771 1 1 0.999771
1 1 1 1
0.999943 1 1 0.999943
0.999955 1 1 0.999955
0.999839 1 1 0.999839
0.99972 1 1 0.99972
0.999782 1 1 0.999782
0.999695 1 1 0.999695
0.999834 1 1 0.999834
0.999762 1 1 0.999762
0.999761 1 1 0.999761
0.99974 1 1 0.99974
0.999983 1 1 0.999983
1 1 1 1
1 1 1 1
1 1 1 1
1 1 1 1
1 1 1 1
1 1 1 1
1 1 1 1
1 1 1 1
0.999972 1 1 0.999972
0.999964 1 1 0.999964
0.999782 1 1 0.999782
0.999753 1 1 0.999753
0.999949 1 1 0.999949
1 1 1 1
0.999946 1 1 0.999946
0.999741 1 1 0.999741
0.999768 1 1 0.999768
0.999657 1 1 0.999657
0.999799 1 1 0.999799
0.999688 1 1 0.999688
0.999738 1 1 0.999738
0.999647 1 1 0.999647
0.999671 1 1 0.999671
0.999627 1 1 0.999627
0.999704 1 1 0.999704
0.999655 1 1 0.999655
0.999949 1 1 0.999949
0.999928 1 1 0.999928
0.999739 1 1 0.999739
0.999795 1 1 0.999795
1 1 1 1
1 1 1 1
0.999927 1 1 0.999927
0.999833 1 1 0.999833
0.999682 1 1 0.999682
0.999763 1 1 0.999763
0.999779 1 1 0.999779
0.999722 1 1 0.999722
1 1 1 1
0.999941 1 1 0.999941
0.999738 1 1 0.999738
0.999776 1 1 0.999776
0.999662 1 1 0.999662
0.99967 1 1 0.99967
1 1 1 1
0.999926 1 1 0.999926
0.999809 1 1 0.999809
0.999738 1 1 0.999738
0.999652 1 1 0.999652
0.999727 1 1 0.999727
0.999711 1 1 0.999711
0.999708 1 1 0.999708
0.999935 1 1 0.999935
0.99982 1 1 0.99982
0.999952 1 1 0.999952
0.999661 1 1 0.999661
0.999662 1 1 0.999662
0.999616 1 1 0.999616
0.999624 1 1 0.999624
0.999692 1 1 0.999692
0.999655 1 1 0.999655
0.999932 1 1 0.999932
0.999704 1 1 0.999704
0.999829 1 1 0.999829
0.999743 1 1 0.999743
0.999694 1 1 0.999694
0.999723 1 1 0.999723
0.999968 1 1 0.999968
0.999829 1 1 0.999829
0.999813 1 1 0.999813
0.999772 1 1 0.999772
0.99982 1 1 0.99982
1 1 1 1
1 1 1 1
0.999948 1 1 0.999948
0.99988 1 1 0.99988
0.999746 1 1 0.999746
0.999937 1 1 0.999937
0.999822 1 1 0.999822
0.999811 1 1 0.999811
0.999766 1 1 0.999766
1 1 1 1
0.999943 1 1 0.999943
0.999955 1 1 0.999955
0.999839 1 1 0.999839
0.99972 1 1 0.99972
0.999782 1 1 0.999782
0.999695 1 1 0.999695
0.999834 1 1 0.999834
0.999767 1 1 0.999767
0.99976 1 1 0.99976
0.999749 1 1 0.999749
1 1 1 1
0.999964 1 1 0.999964
0.999839 1 1 0.999839
0.999842 1 1 0.999842
0.999772 1 1 0.999772
0.999677 1 1 0.999677
0.999733 1 1 0.999733
0.999677 1 1 0.999677
0.999767 1 1 0.999767
0.999735 1 1 0.999735
0.9997 1 1 0.9997
0.999978 1 1 0.999978
0.999884 1 1 0.999884
0.999987 1 1 0.999987
0.999984 1 1 0.999984
1 1 1 1
1 1 1 1
1 1 1 1
1 1 1 1
1 1 1 1
1 1 1 1
1 1 1 1
1 1 1 1
1 1 1 1
1 1 1 1
1 1 1 1
0.999799 1 1 0.999799
0.999768 1 1 0.999768
0.999688 1 1 0.999688
0.999657 1 1 0.999657
0.999741 1 1 0.999741
0.999945 1 1 0.999945
0.999738 1 1 0.999738
0.999647 1 1 0.999647
0.999672 1 1 0.999672
0.999626 1 1 0.999626
0.999704 1 1 0.999704
0.999655 1 1 0.999655
0.999643 1 1 0.999643
0.999621 1 1 0.999621
0.999637 1 1 0.999637
0.99962 1 1 0.99962
0.999669 1 1 0.999669
0.999667 1 1 0.999667
0.999732 1 1 0.999732
0.999776 1 1 0.999776
0.99966 1 1 0.99966
0.99968 1 1 0.99968
1 1 1 1
0.999926 1 1 0.999926
0.999815 1 1 0.999815
0.999738 1 1 0.999738
0.99965 1 1 0.99965
0.999711 1 1 0.999711
0.99972 1 1 0.99972
0.999707 1 1 0.999707
0.999935 1 1 0.999935
0.999816 1 1 0.999816
0.999952 1 1 0.999952
0.999655 1 1 0.999655
0.999662 1 1 0.999662
0.999611 1 1 0.999611
0.999626 1 1 0.999626
0.999932 1 1 0.999932
0.999829 1 1 0.999829
0.999749 1 1 0.999749
0.999695 1 1 0.999695
0.999659 1 1 0.999659
0.999688 1 1 0.999688
0.999704 1 1 0.999704
0.999726 1 1 0.999726
0.99983 1 1 0.99983
0.999767 1 1 0.999767
0.999967 1 1 0.999967
0.999814 1 1 0.999814
0.99961 1 1 0.99961
0.99961 1 1 0.99961
0.999587 1 1 0.999587
0.99962 1 1 0.99962
0.999694 1 1 0.999694
0.999675 1 1 0.999675
0.999834 1 1 0.999834
0.999732 1 1 0.999732
0.99977 1 1 0.99977
0.999697 1 1 0.999697
0.99967 1 1 0.99967
0.999729 1 1 0.999729
0.999978 1 1 0.999978
0.999825 1 1 0.999825
0.999778 1 1 0.999778
0.99975 1 1 0.99975
0.999744 1 1 0.999744
1 1 1 1
0.999719 1 1 0.999719
0.999955 1 1 0.999955
0.999943 1 1 0.999943
0.999838 1 1 0.999838
0.999783 1 1 0.999783
0.999695 1 1 0.999695
0.999834 1 1 0.999834
0.999758 1 1 0.999758
0.999771 1 1 0.999771
0.999758 1 1 0.999758
1 1 1 1
0.999964 1 1 0.999964
0.999839 1 1 0.999839
0.999842 1 1 0.999842
0.99977 1 1 0.99977
0.999677 1 1 0.999677
0.999733 1 1 0.999733
0.999675 1 1 0.999675
0.999767 1 1 0.999767
0.999738 1 1 0.999738
0.999704 1 1 0.999704
0.999972 1 1 0.999972
0.999849 1 1 0.999849
0.999771 1 1 0.999771
0.99977 1 1 0.99977
0.999742 1 1 0.999742
0.999669 1 1 0.999669
0.999708 1 1 0.999708
0.999692 1 1 0.999692
0.99971 1 1 0.99971
0.99967 1 1 0.99967
0.99998 1 1 0.99998
0.999857 1 1 0.999857
0.999877 1 1 0.999877
0.999809 1 1 0.999809
0.999892 1 1 0.999892
0.99999 1 1 0.99999
0.999988 1 1 0.999988
1 1 1 1
0.999986 1 1 0.999986
1 1 1 1
1 1 1 1
1 1 1 1
1 1 1 1
1 1 1 1
1 1 1 1
1 1 1 1
1 1 1 1
1 1 1 1
1 1 1 1
1 1 1 1
0.999703 1 1 0.999703
0.999672 1 1 0.999672
0.999655 1 1 0.999655
0.999626 1 1 0.999626
0.999646 1 1 0.999646
0.999738 1 1 0.999738
0.999644 1 1 0.999644
0.99962 1 1 0.99962
0.999637 1 1 0.999637
0.999618 1 1 0.999618
0.999669 1 1 0.999669
0.999667 1 1 0.999667
0.999615 1 1 0.999615
0.999616 1 1 0.999616
0.999634 1 1 0.999634
0.999611 1 1 0.999611
0.999674 1 1 0.999674
0.999684 1 1 0.999684
0.999648 1 1 0.999648
0.999662 1 1 0.999662
0.999606 1 1 0.999606
0.999628 1 1 0.999628
0.999932 1 1 0.999932
0.999829 1 1 0.999829
0.999756 1 1 0.999756
0.999698 1 1 0.999698
0.999662 1 1 0.999662
0.999705 1 1 0.999705
0.999683 1 1 0.999683
0.99973 1 1 0.99973
0.99983 1 1 0.99983
0.999761 1 1 0.999761
0.999966 1 1 0.999966
0.999816 1 1 0.999816
0.999611 1 1 0.999611
0.999611 1 1 0.999611
0.999584 1 1 0.999584
0.999621 1 1 0.999621
0.999834 1 1 0.999834
0.999775 1 1 0.999775
0.999697 1 1 0.999697
0.999692 1 1 0.999692
0.999685 1 1 0.999685
0.999667 1 1 0.999667
0.999733 1 1 0.999733
0.999739 1 1 0.999739
0.999778 1 1 0.999778
0.999742 1 1 0.999742
0.999749 1 1 0.999749
0.999968 1 1 0.999968
0.999828 1 1 0.999828
0.999591 1 1 0.999591
0.999574 1 1 0.999574
0.99964 1 1 0.99964
0.999716 1 1 0.999716
0.999786 1 1 0.999786
0.999766 1 1 0.999766
0.99973 1 1 0.99973
0.999642 1 1 0.999642
0.999652 1 1 0.999652
0.999968 1 1 0.999968
0.999861 1 1 0.999861
0.999755 1 1 0.999755
0.999755 1 1 0.999755
0.999701 1 1 0.999701
0.99972 1 1 0.99972
1 1 1 1
0.999965 1 1 0.999965
0.999676 1 1 0.999676
0.999842 1 1 0.999842
0.999838 1 1 0.999838
0.999768 1 1 0.999768
0.999733 1 1 0.999733
0.999673 1 1 0.999673
0.999768 1 1 0.999768
0.999709 1 1 0.999709
0.999741 1 1 0.999741
0.999973 1 1 0.999973
0.999849 1 1 0.999849
0.999775 1 1 0.999775
0.99977 1 1 0.99977
0.999738 1 1 0.999738
0.999668 1 1 0.999668
0.999706 1 1 0.999706
0.999694 1 1 0.999694
0.999706 1 1 0.999706
0.999662 1 1 0.999662
0.999858 1 1 0.999858
0.999761 1 1 0.999761
0.999728 1 1 0.999728
0.999723 1 1 0.999723
0.999714 1 1 0.999714
0.999727 1 1 0.999727
0.999662 1 1 0.999662
0.999679 1 1 0.999679
0.999666 1 1 0.999666
0.999595 1 1 0.999595
0.999981 1 1 0.999981
0.999862 1 1 0.999862
0.999775 1 1 0.999775
0.99987 1 1 0.99987
0.999892 1 1 0.999892
0.999798 1 1 0.999798
0.999744 1 1 0.999744
0.999795 1 1 0.999795
0.999898 1 1 0.999898
0.999992 1 1 0.999992
0.999991 1 1 0.999991
1 1 1 1
0.999989 1 1 0.999989
1 1 1 1
1 1 1 1
1 1 1 1
1 1 1 1
1 1 1 1
1 1 1 1
1 1 1 1
1 1 1 1
1 1 1 1
1 1 1 1
1 1 1 1
0.999668 1 1 0.999668
0.999637 1 1 0.999637
0.999668 1 1 0.999668
0.999617 1 1 0.999617
0.999619 1 1 0.999619
0.999644 1 1 0.999644
0.999614 1 1 0.999614
0.999617 1 1 0.999617
0.999631 1 1 0.999631
0.999605 1 1 0.999605
0.999674 1 1 0.999674
0.999692 1 1 0.999692
0.999618 1 1 0.999618
0.999615 1 1 0.999615
0.999633 1 1 0.999633
0.99973 1 1 0.99973
0.999612 1 1 0.999612
0.999612 1 1 0.999612
0.999581 1 1 0.999581
0.999622 1 1 0.999622
0.999834 1 1 0.999834
0.99978 1 1 0.99978
0.999696 1 1 0.999696
0.999689 1 1 0.999689
0.999696 1 1 0.999696
0.999733 1 1 0.999733
0.999664 1 1 0.999664
0.999749 1 1 0.999749
0.999778 1 1 0.999778
0.999739 1 1 0.999739
0.999748 1 1 0.999748
0.999958 1 1 0.999958
0.99983 1 1 0.99983
0.999588 1 1 0.999588
0.999579 1 1 0.999579
0.999644 1 1 0.999644
0.999785 1 1 0.999785
0.999737 1 1 0.999737
0.999641 1 1 0.999641
0.999711 1 1 0.999711
0.999666 1 1 0.999666
0.999763 1 1 0.999763
0.999968 1 1 0.999968
0.999754 1 1 0.999754
0.999725 1 1 0.999725
0.999703 1 1 0.999703
0.999758 1 1 0.999758
0.999853 1 1 0.999853
0.999582 1 1 0.999582
0.999573 1 1 0.999573
0.999679 1 1 0.999679
0.999761 1 1 0.999761
0.999755 1 1 0.999755
0.999702 1 1 0.999702
0.999668 1 1 0.999668
0.9996 1 1 0.9996
0.999976 1 1 0.999976
0.999879 1 1 0.999879
0.999778 1 1 0.999778
0.999682 1 1 0.999682
0.999726 1 1 0.999726
0.999683 1 1 0.999683
0.999974 1 1 0.999974
0.999848 1 1 0.999848
0.999667 1 1 0.999667
0.999769 1 1 0.999769
0.999779 1 1 0.999779
0.999734 1 1 0.999734
0.999704 1 1 0.999704
0.999696 1 1 0.999696
0.999703 1 1 0.999703
0.999655 1 1 0.999655
0.999858 1 1 0.999858
0.999764 1 1 0.999764
0.999734 1 1 0.999734
0.999727 1 1 0.999727
0.999717 1 1 0.999717
0.999732 1 1 0.999732
0.999665 1 1 0.999665
0.999696 1 1 0.999696
0.999661 1 1 0.999661
0.999589 1 1 0.999589
0.999765 1 1 0.999765
0.999702 1 1 0.999702
0.999687 1 1 0.999687
0.999689 1 1 0.999689
0.999736 1 1 0.999736
0.999729 1 1 0.999729
0.999592 1 1 0.999592
0.999909 1 1.00034 0.999567
0.999868 1 1 0.999868
0.999781 1 1 0.999781
0.999728 1 1 0.999728
0.999892 1 1 0.999892
0.999788 1 1 0.999788
0.999898 1 1 0.999898
0.999736 1 1 0.999736
0.999799 1 1 0.999799
0.999695 1 1 0.999695
0.999732 1 1 0.999732
0.9998 1 1 0.9998
0.999902 1 1 0.999902
0.999993 1 1 0.999993
0.999992 1 1 0.999992
1 1 1 1
0.999991 1 1 0.999991
1 1 1 1
1 1 1 1
1 1 1 1
1 1 1 1
1 1 1 1
1 1 1 1
1 1 1 1
1 1 1 1
1 1 1 1
1 1 1 1
1 1 1 1
0.999674 1 1 0.999674
0.999628 1 1 0.999628
0.999701 1 1 0.999701
0.999599 1 1 0.999599
0.999617 1 1 0.999617
0.999614 1 1 0.999614
0.999615 1 1 0.999615
0.999614 1 1 0.999614
0.999638 1 1 0.999638
0.999727 1 1 0.999727
0.999617 1 1 0.999617
0.999627 1 1 0.999627
0.999686 1 1 0.999686
0.999585 1 1 0.999585
0.999584 1 1 0.999584
0.999648 1 1 0.999648
0.999785 1 1 0.999785
0.999744 1 1 0.999744
0.999639 1 1 0.999639
0.999707 1 1 0.999707
0.999761 1 1 0.999761
0.999679 1 1 0.999679
0.999754 1 1 0.999754
0.999729 1 1 0.999729
0.999705 1 1 0.999705
0.999969 1 1 0.999969
0.999761 1 1 0.999761
0.999845 1 1 0.999845
0.999588 1 1 0.999588
0.999571 1 1 0.999571
0.999671 1 1 0.999671
0.999754 1 1 0.999754
0.999677 1 1 0.999677
0.999605 1 1 0.999605
0.999767 1 1 0.999767
0.999701 1 1 0.999701
0.999984 1 1 0.999984
0.99988 1 1 0.99988
0.999725 1 1 0.999725
0.999685 1 1 0.999685
0.999687 1 1 0.999687
0.999772 1 1 0.999772
0.999602 1 1 0.999602
0.999588 1 1 0.999588
0.99971 1 0.999949 0.999761
0.999776 1 1 0.999776
0.999711 1 1 0.999711
0.999975 1 1.00039 0.999589
0.99962 1 1 0.99962
0.999997 1 1 0.999997
0.999921 1 1 0.999921
0.999884 1 1 0.999884
0.99978 1 1 0.99978
0.999699 1 1 0.999699
0.999642 1 1 0.999642
0.999703 1 1 0.999703
0.999656 1 1 0.999656
0.999858 1 1 0.999858
0.999767 1 1 0.999767
0.999736 1 1 0.999736
0.999732 1 1 0.999732
0.999739 1 1 0.999739
0.999721 1 1 0.999721
0.999667 1 1 0.999667
0.999714 1 1 0.999714
0.999657 1 1 0.999657
0.999582 1 1 0.999582
0.999764 1 1 0.999764
0.999708 1 1 0.999708
0.999693 1 1 0.999693
0.999693 1 1 0.999693
0.999738 1 1 0.999738
0.999725 1 1 0.999725
0.9996 1 1 0.9996
0.999739 1 1.00017 0.999564
0.999716 1 1 0.999716
0.999687 1 1 0.999687
0.999669 1 1 0.999669
0.99964 1 1 0.99964
0.999726 1 0.999973 0.999753
0.999575 1 1 0.999575
1.00008 1 1.00055 0.999524
0.999786 1 1 0.999786
0.999728 1 1 0.999728
0.999686 1 1 0.999686
0.999898 1 1 0.999898
0.999803 1 1 0.999803
0.999729 1 1 0.999729
0.999902 1 1 0.999902
0.9998 1 1 0.9998
0.999689 1 1 0.999689
0.999741 1 1 0.999741
0.99966 1 1 0.99966
0.999683 1 1 0.999683
0.999746 1 1 0.999746
0.99981 1 1 0.99981
0.999902 1 1 0.999902
0.999992 1 1 0.999992
0.999993 1 1 0.999993
1 1 1 1
0.999993 1 1 0.999993
1 1 1 1
1 1 1 1
1 1 1 1
1 1 1 1
1 1 1 1
0.999999 1 1 0.999999
1 1 1 1
1 1 1 1
1 1 1 1
1 1 1 1
1 1 1 1
1 1 1 1
0.999724 1 1 0.999724
0.999643 1 1 0.999643
0.999614 1 1 0.999614
0.999612 1 1 0.999612
0.999622 1 1 0.999622
0.999622 1 1 0.999622
0.999698 1 1 0.999698
0.999632 1 1 0.999632
0.999642 1 1 0.999642
0.999722 1 1 0.999722
0.999594 1 1 0.999594
0.999569 1 1 0.999569
0.999664 1 1 0.999664
0.999753 1 1 0.999753
0.999685 1 1 0.999685
0.99961 1 1 0.99961
0.999772 1 1 0.999772
0.999699 1 1 0.999699
0.999725 1 1 0.999725
0.999687 1 1 0.999687
0.999692 1 1 0.999692
0.999991 1 1 0.999991
0.99988 1 1 0.99988
0.999766 1 1 0.999766
0.9996 1 1 0.9996
0.999996 1 1 0.999996
0.999915 1 1 0.999915
0.99959 1 1 0.99959
0.999746 1 1 0.999746
0.999715 1 1 0.999715
0.999625 1 1.00001 0.999612
0.999731 1 1.00014 0.999592
0.999773 1 1 0.999773
0.999899 1 1 0.999899
0.99978 1 1 0.99978
0.999704 1 1 0.999704
0.999664 1 1 0.999664
0.999634 1 1 0.999634
0.9997 1 1 0.9997
0.99959 1 1 0.99959
0.999666 1 1 0.999666
0.999453 1 0.999607 0.999846
0.999659 1 1 0.999659
0.999679 1 1 0.999679
1.00064 1 1.00109 0.999551
0.99992 1 1 0.99992
0.999911 1 1 0.999911
0.999845 1 1 0.999845
0.999784 1 1 0.999784
0.999716 1 1 0.999716
0.999635 1 1 0.999635
0.999596 1 1 0.999596
0.999664 1 1 0.999664
0.999762 1 1 0.999762
0.999714 1 1 0.999714
0.99974 1 1 0.99974
0.999721 1 1 0.999721
0.999697 1 1 0.999697
0.999698 1 1 0.999698
0.999609 1 1 0.999609
0.999611 1 1.00005 0.999562
0.999716 1 1 0.999716
0.999704 1 1 0.999704
0.999668 1 1 0.999668
0.999661 1 1.00003 0.99963
0.999749 1 1 0.999749
0.999577 1 1 0.999577
1.00003 1 1.00051 0.999521
0.999672 1 1 0.999672
1.00036 1.00112 0.999532 0.999717
0.999639 1 1 0.999639
0.999998 1 1.00044 0.999558
0.999559 1 0.999981 0.999578
1.00052 1 1.00104 0.999488
0.992961 1.00527 0.988238 0.999509
0.999729 1 1 0.999729
0.999686 1 1 0.999686
0.999657 1 1 0.999657
0.999902 1 1 0.999902
0.9998 1 1 0.9998
0.999749 1 1 0.999749
0.999684 1 1 0.999684
0.999902 1 1 0.999902
0.999805 1 1 0.999805
0.999658 1 1 0.999658
0.999746 1 1 0.999746
0.99969 1 1 0.99969
0.999639 1 1 0.999639
0.999697 1 1 0.999697
0.999749 1 1 0.999749
0.999796 1 1 0.999796
0.999886 1 1 0.999886
0.999818 1 1 0.999818
0.999885 1 1 0.999885
0.999992 1 1 0.999992
0.999992 1 1 0.999992
1 1 1 1
0.999992 1 1 0.999992
1 1 1 1
1 1 1 1
1 1 1 1
1 1 1 1
1 1 1 1
1 1 1 1
0.999999 1 1 0.999999
1 1 1 1
1 1 1 1
1 1 1 1
1 1 1 1
1 1 1 1
1 1 1 1
0.999711 1 1 0.999711
0.999616 1 1 0.999616
0.999627 1 1 0.999627
0.999632 1 1 0.999632
0.999647 1 1 0.999647
0.99973 1 1 0.99973
0.999658 1 1 0.999658
0.996997 1.00191 0.995308 0.99979
0.999594 1.00007 0.999705 0.999821
0.999939 1 1 0.999939
0.999597 1 1 0.999597
0.999592 1 1 0.999592
0.999731 1 1 0.999731
0.999719 1 1 0.999719
0.999603 1 1 0.999603
0.999596 1 1 0.999596
0.99977 1 1 0.99977
0.999706 1 1 0.999706
0.999673 1 1 0.999673
0.999625 1 1 0.999625
0.999994 1 1 0.999994
0.999702 1 1 0.999702
0.999914 1 1 0.999914
0.999779 1 1 0.999779
0.99991 1 1 0.99991
0.999583 1 1 0.999583
0.999926 1 1 0.999926
0.999911 1 1 0.999911
0.999833 1 1 0.999833
0.999668 1 1 0.999668
0.99934 1 0.999515 0.999825
0.999682 1 1 0.999682
1.00044 1 1.0009 0.999547
0.999663 1 1 0.999663
0.999793 1 1 0.999793
0.999713 1 1 0.999713
0.999662 1 1 0.999662
0.999638 1 1.00003 0.999604
0.999641 1 1 0.999641
0.999616 1 1.00004 0.999572
0.997225 1 0.997433 0.999792
0.999464 1 0.999737 0.999728
1.00025 1 1.00069 0.999563
1.00042 1 1.00079 0.99963
0.999834 1 1 0.999834
0.999805 1 1 0.999805
0.999769 1 1 0.999769
0.999717 1 1 0.999717
0.999662 1 1 0.999662
0.999596 1 1 0.999596
1.00118 1 1.0016 0.999581
0.999716 1 1 0.999716
0.999668 1 1 0.999668
0.999722 1 1 0.999722
0.999744 1 1 0.999744
0.999578 1 1 0.999578
0.999634 1 1.00001 0.999621
0.999914 1 1.0004 0.999518
0.999675 1 1 0.999675
1.0005 1.00117 0.999606 0.999726
0.999639 1 1 0.999639
0.999865 1 1.00031 0.999557
0.999599 1.00009 0.999915 0.999592
1.00114 1 1.00165 0.999485
0.997005 1.00785 0.989691 0.999545
0.999644 1 1 0.999644
1.00093 1.00164 0.999741 0.999546
0.999608 1 1 0.999608
1.00247 1 1.00296 0.999509
1.00039 1 1.00091 0.999478
0.962087 0.963823 1.00004 0.998159