# vtk DataFile Version 2.0
Wound Healing Simulation
ASCII
DATASET UNSTRUCTURED_GRID
POINTS 3012 float
69.9759 18.75 4
67.2507 60.3285 4
69.976 18.75 2
73.0099 25.446 4
71.1327 20.9142 4
68.6801 16.6661 4
67.8218 19.9261 3.97443
67.2507 60.3286 2
71.1327 54.0858 4
68.6801 58.3339 4
65.6939 62.2254 4
65.3087 58.999 3.9728
74.6784 42.3946 4
73.7221 47.2057 4
69.9759 18.75 0
73.0099 25.446 2
68.6801 16.6661 2
71.1327 20.9142 2
67.8227 19.9302 2
74.6792 32.6053 4
73.7222 27.7943 4
72.1454 23.1494 4
70.6115 26.2215 3.97427
68.8822 21.9577 3.97476
67.2507 14.6715 4
66.6331 17.9729 3.97315
65.772 21.0337 3.96297
67.2507 60.3285 0
71.1327 54.0858 2
68.6801 58.3339 2
65.694 62.2255 2
65.3097 58.9945 2
72.1454 51.8506 4
69.9759 56.25 4
68.8328 53.1139 3.97442
64.0165 64.0165 4
66.607 57.1327 3.97416
63.8819 60.7628 3.97207
63.4908 57.7634 3.96392
60.3285 67.2507 4
74.6792 42.3947 2
73.7222 47.2057 2
74.9194 39.9526 4
74.2788 44.8158 4
72.1662 42.0857 3.97565
73.0099 49.554 4
71.2467 46.5983 3.97425
73.0099 25.446 0
71.1327 20.9142 0
68.6801 16.6661 0
67.8218 19.9261 0.0255738
74.6792 32.6053 2
73.7222 27.7943 2
67.2508 14.6715 2
72.1455 23.1494 2
70.6109 26.2224 2
66.6345 17.9777 2
68.8826 21.9607 2
65.7694 21.036 2
74.9197 35.0474 4
74.2794 30.1841 4
72.183 32.9445 3.97617
71.2759 28.4325 3.97448
69.8124 24.0596 3.97448
68.3344 26.9565 3.96407
66.7409 22.9403 3.96336
65.694 12.7746 4
65.3192 16.1059 3.9717
64.6921 19.2044 3.96256
63.7721 22.0799 3.9642
71.1327 54.0858 0
65.6939 62.2254 0
68.6801 58.3339 0
65.3087 58.999 0.0271987
72.1455 51.8506 2
69.9759 56.25 2
68.833 53.1109 2
64.0165 64.0165 2
66.6082 57.1283 2
63.8832 60.7578 2
63.4883 57.7629 2
62.2254 65.694 4
58.8914 65.4125 3.98181
69.7656 50.9898 3.97414
67.78 55.1675 3.97452
66.622 52.2029 3.96343
62.3322 62.4244 3.97621
64.6455 56.0254 3.96358
62.1942 59.3901 3.96443
61.7498 56.6442 3.96089
58.3339 68.6801 4
60.3285 67.2508 2
73.7221 47.2057 0
74.6784 42.3946 0
74.9197 39.9526 2
74.2794 44.8159 2
72.1654 42.0855 2
73.0099 49.554 2
71.246 46.5977 2
75 37.5 4
72.4036 39.8026 3.97692
71.7803 44.3531 3.97537
69.7981 41.7897 3.9664
70.5722 48.8141 3.97395
68.9003 46.0127 3.96535
74.6792 32.6053 0
73.7222 27.7943 0
67.2507 14.6715 0
72.1454 23.1494 0
70.6115 26.2215 0.025733
68.8822 21.9577 0.0252439
66.6331 17.9729 0.026852
65.772 21.0337 0.0370265
74.9197 35.0474 2
74.2794 30.1841 2
72.1822 32.9448 2
71.2753 28.4328 2
65.694 12.7745 2
65.3208 16.1109 2
69.8123 24.0614 2
68.3371 26.9574 2
64.6858 19.207 2
66.741 22.9421 2
63.7712 22.0809 2
72.4115 35.2251 3.977
71.8018 30.6775 3.97558
69.8345 33.2717 3.96653
68.9595 29.0424 3.96493
67.5945 24.9179 3.96364
66.0656 27.669 3.9691
64.0165 10.9835 4
64.6344 23.8719 3.96603
63.8852 14.3312 3.97103
63.5011 17.4579 3.96179
62.7973 20.3683 3.96233
61.8767 23.0265 3.96909
60.6805 11.1021 3.97702
57.6046 11.4781 3.96825
72.1454 51.8506 0
69.9759 56.25 0
68.8328 53.1139 0.0255773
64.0165 64.0165 0
63.8819 60.7628 0.0279309
66.607 57.1327 0.0258376
63.4908 57.7634 0.0360802
62.2255 65.694 2
58.8935 65.408 2
69.7654 50.9878 2
67.7807 55.1636 2
66.6217 52.2015 2
62.3344 62.4193 2
64.6382 56.0234 2
62.1916 59.3898 2
61.7481 56.6445 2
60.6655 63.9729 3.97871
57.0219 66.7335 3.98454
57.5508 63.6704 3.97075
67.4817 50.1712 3.9639
65.6789 54.1672 3.96336
64.3964 51.3437 3.96621
60.767 60.9167 3.96747
62.7214 55.029 3.96342
60.6041 58.1213 3.95951
60.1856 55.7192 3.96499
56.25 69.9759 4
58.3339 68.6801 2
60.3285 67.2507 0
58.9177 9.66024 3.97843
62.2254 9.30607 4
73.0099 49.554 0
74.2788 44.8158 0
71.2467 46.5983 0.0257467
72.1662 42.0857 0.0243538
74.9194 39.9526 0
75 37.5 2
72.4034 39.8025 2
71.7799 44.3527 2
69.7973 41.7895 2
70.5717 48.813 2
68.9036 46.0123 2
72.487 37.5127 3.97654
70.0359 39.6582 3.96698
69.4243 43.9069 3.96621
67.486 41.4871 3.97407
68.2447 48.103 3.96451
66.5668 45.4135 3.97145
74.9197 35.0474 0
74.2794 30.1841 0
72.183 32.9445 0.0238283
71.2759 28.4325 0.0255158
65.694 12.7746 0
65.3192 16.1059 0.0283042
69.8124 24.0596 0.0255156
68.3344 26.9565 0.0359327
66.7409 22.9403 0.0366427
64.6921 19.2044 0.0374414
63.7721 22.0799 0.0357977
72.4113 35.2251 2
71.8016 30.678 2
69.8337 33.2724 2
68.9594 29.0431 2
64.0165 10.9835 2
63.887 14.3365 2
63.4963 17.4595 2
67.596 24.9193 2
66.0639 27.6701 2
62.7964 20.369 2
64.6327 23.8732 2
61.8754 23.0275 2
60.6832 11.1071 2
57.6054 11.471 2
70.0527 35.3945 3.96707
69.4611 31.1533 3.9656
67.5499 33.6055 3.97311
66.6475 29.6512 3.97049
65.3974 25.7379 3.96774
63.8883 28.3214 3.97576
62.3373 12.6591 3.97515
62.6217 24.7163 3.97161
62.1885 15.8024 3.96478
61.7209 18.7344 3.95978
61.0125 21.4304 3.96574
60.1143 23.8471 3.97296
59.2384 12.8118 3.965
55.8674 10.2631 3.97237
56.3923 13.1768 3.9691
69.7656 50.9898 0.0258646
62.2254 65.694 0
58.8914 65.4125 0.0181907
67.78 55.1675 0.0254785
66.622 52.2029 0.0365745
62.3322 62.4244 0.023789
62.1942 59.3901 0.0355698
64.6455 56.0254 0.0364206
61.7498 56.6442 0.0391073
60.6678 63.9701 2
57.0249 66.7304 2
57.5516 63.6742 2
67.483 50.1701 2
65.6758 54.1655 2
64.3954 51.3431 2
60.7651 60.9178 2
62.7199 55.0289 2
60.6047 58.1227 2
60.1843 55.7191 2
55.0678 67.9309 3.98694
59.2124 62.335 3.9678
55.7992 64.8978 3.97283
56.3144 62.0407 3.97185
65.1801 49.3691 3.96783
63.5801 53.2506 3.9647
62.1729 50.5742 3.97048
59.3083 59.5205 3.96015
60.8872 54.2369 3.96762
59.1541 56.9403 3.96106
59.0398 55.0957 3.96815
48.0994 68.5729 3.98263
50.9457 69.931 3.98907
54.0858 71.1327 4
56.25 69.976 2
58.3339 68.6801 0
57.0553 8.33903 3.98067
60.3285 7.74928 4
58.921 9.66435 2
62.2255 9.30602 2
70.5722 48.8141 0.0260455
71.7803 44.3531 0.0246341
68.9003 46.0127 0.0346468
69.7981 41.7897 0.0335955
72.4036 39.8026 0.0230793
75 37.5 0
72.4863 37.5126 2
70.0356 39.6582 2
69.4239 43.9066 2
67.4838 41.4868 2
68.2469 48.1022 2
66.5648 45.4128 2
70.1239 37.5232 3.9671
67.7308 39.5087 3.97408
67.0947 43.4518 3.97276
65.293 41.1858 3.97622
65.917 47.3842 3.96981
64.3617 44.7946 3.97637
72.4115 35.2251 0.0230014
71.8018 30.6775 0.0244201
69.8345 33.2717 0.0334669
68.9595 29.0424 0.035069
64.0165 10.9835 0
63.8852 14.3312 0.0289749
63.5011 17.4579 0.0382133
67.5945 24.9179 0.0363636
66.0656 27.669 0.0308988
64.6344 23.8719 0.03397
62.7973 20.3683 0.0376717
61.8767 23.0265 0.0309109
60.6805 11.1021 0.0229761
57.6046 11.4781 0.0317538
70.0524 35.3949 2
69.4608 31.154 2
67.5478 33.606 2
66.6453 29.6521 2
62.3398 12.6645 2
62.1865 15.8035 2
61.7194 18.735 2
65.3955 25.7392 2
63.8856 28.3228 2
61.0121 21.4309 2
62.6199 24.7175 2
60.1124 23.8484 2
59.2384 12.8123 2
56.3936 13.1741 2
55.8697 10.2622 2
67.769 35.556 3.97352
67.1538 31.6437 3.97231
65.4502 33.9551 3.97656
64.3978 30.2489 3.97616
63.2908 26.4871 3.97404
61.8811 28.8755 3.97584
60.7671 14.2483 3.96541
60.7065 25.4535 3.97507
60.5529 17.1756 3.9587
60.0263 19.9111 3.962
59.361 22.3851 3.96862
58.5907 24.4727 3.97433
54.033 9.15078 3.97141
57.8929 14.3834 3.96274
54.774 12.0752 3.96703
55.2874 14.7262 3.96288
67.4817 50.1712 0.0360968
57.0219 66.7335 0.0154606
60.6655 63.9729 0.0212936
57.5508 63.6704 0.0292494
65.6789 54.1672 0.0366367
64.3964 51.3437 0.0337896
60.767 60.9167 0.0325252
60.6041 58.1213 0.0404918
62.7214 55.029 0.0365766
60.1856 55.7192 0.0350073
55.0706 67.9288 2
59.2121 62.338 2
55.8002 64.8965 2
56.3129 62.0406 2
65.1784 49.3683 2
63.5799 53.2505 2
62.172 50.5736 2
59.3123 59.525 2
60.8872 54.2369 2
59.1605 56.942 2
59.0451 55.0967 2
53.0399 68.9991 3.98834
53.9626 66.0031 3.97702
57.8651 60.8298 3.96779
54.6707 63.1656 3.97075
55.1907 60.5604 3.97537
62.9076 48.588 3.97275
61.5086 52.4983 3.96894
59.8862 49.9066 3.97304
57.9343 58.201 3.96029
59.0704 53.8494 3.96995
57.892 55.7102 3.96314
50.1059 67.8504 3.98141
47.4596 66.5676 3.97669
46.0535 69.1525 3.98437
48.1006 68.5725 2
48.7998 70.7224 3.98972
50.9479 69.93 2
51.8506 72.1454 4
54.0858 71.1327 2
56.25 69.9759 0
55.1001 7.14338 3.98453
58.3339 6.31992 4
57.0586 8.34304 2
60.3286 7.74926 2
58.9177 9.66024 0.0215712
62.2254 9.30607 0
68.2447 48.103 0.035486
69.4243 43.9069 0.0337944
66.5668 45.4135 0.028545
67.486 41.4871 0.0259317
70.0359 39.6582 0.0330221
72.487 37.5127 0.0234574
70.1232 37.5234 2
67.7283 39.5086 2
67.0934 43.4514 2
65.2901 41.1854 2
65.9153 47.3834 2
64.3599 44.7936 2
67.8311 37.5246 3.97387
65.5331 39.3602 3.97648
64.9024 42.9843 3.97642
63.3799 40.896 3.97658
63.669 46.6519 3.97481
62.3936 44.1399 3.97614
70.0527 35.3945 0.032927
69.4611 31.1533 0.0343976
67.5499 33.6055 0.0268934
66.6475 29.6512 0.0295081
62.3373 12.6591 0.0248515
62.1885 15.8024 0.0352183
61.7209 18.7344 0.0402167
65.3974 25.7379 0.0322627
63.8883 28.3214 0.0242405
62.6217 24.7163 0.0283852
61.0125 21.4304 0.0342641
60.1143 23.8471 0.0270375
59.2384 12.8118 0.0350015
56.3923 13.1768 0.030898
55.8674 10.2631 0.0276271
67.7663 35.5563 2
67.1524 31.6443 2
65.4463 33.9556 2
64.3951 30.2502 2
60.7663 14.2493 2
60.5469 17.1768 2
60.0242 19.9119 2
63.2886 26.4884 2
61.879 28.8761 2
59.3627 22.3857 2
60.7046 25.4549 2
58.5875 24.4746 2
57.8919 14.3839 2
55.2891 14.7228 2
54.0356 9.14958 2
54.7743 12.073 2
65.6316 35.6827 3.97648
64.9219 32.1962 3.97609
63.951 34.2839 3.97638
62.1988 30.7128 3.97597
61.2914 27.1813 3.97553
60.3924 29.2562 3.97608
59.2789 15.7164 3.95911
58.903 25.9511 3.9759
58.979 18.4457 3.95956
58.462 20.9859 3.96377
57.913 23.2511 3.97009
57.5432 24.839 3.97559
52.109 8.16458 3.97538
53.0466 11.0656 3.9687
56.6356 15.818 3.95847
53.7877 13.7637 3.968
54.3225 16.0985 3.95941
55.0678 67.9309 0.0130557
65.1801 49.3691 0.0321683
55.7992 64.8978 0.0271703
59.2124 62.335 0.0321983
56.3144 62.0407 0.0281519
63.5801 53.2506 0.0353018
62.1729 50.5742 0.0295201
59.3083 59.5205 0.0398507
59.1541 56.9403 0.0389412
60.8872 54.2369 0.0323791
59.0398 55.0957 0.0318549
53.0424 68.9977 2
53.9638 66.0025 2
57.8646 60.831 2
54.67 63.1669 2
55.1883 60.56 2
62.906 48.5872 2
61.509 52.4982 2
59.8873 49.9063 2
57.9334 58.2025 2
59.0749 53.85 2
57.888 55.7086 2
52.0669 66.992 3.97997
52.9449 64.1947 3.97459
56.6114 59.437 3.9627
53.6569 61.5599 3.97289
[...]
POINT_DATA 3012
SCALARS rho_c_phif_kappa float 4
LOOKUP_TABLE default
1000 0 1.00212 0.270424
1000 0 1.00172 0.270791
1000 0 1.00212 0.270527
1000 0 1.00212 0.270887
1000 0 1.00212 0.270545
1000 0 1.00212 0.270403
1010.99 1.21339e-08 1.00247 0.269164
1000 0 1.00172 0.270821
1000 0 1.00172 0.27138
1000 0 1.00172 0.271029
1000 0 1.00212 0.270347
1010.95 1.189e-08 1.00268 0.269229
1000 0 1.00211 0.271344
1000 0 1.00211 0.272089
1000 0 1.00212 0.270609
1000 0 1.00211 0.271369
1000 0 1.00212 0.270392
1000 0 1.00212 0.270788
1010.88 1.21686e-08 1.00247 0.26915
1000 0 1.00172 0.271402
1000 0 1.00211 0.271009
1000 0 1.00212 0.270718
1010.94 1.22735e-08 1.00246 0.270132
1010.97 1.21899e-08 1.00247 0.269511
1000 0 1.00212 0.270478
1011.02 1.20789e-08 1.00248 0.268801
1012.03 1.38112e-08 1.00283 0.265195
1000 0 1.00172 0.270878
1000 0 1.00192 0.271003
1000 0 1.00192 0.270706
1000 0 1.00172 0.271009
1010.94 1.1933e-08 1.00268 0.269135
1000 0 1.00212 0.270749
1000 0 1.00212 0.270284
1010.99 1.22121e-08 1.00247 0.269199
1000 0 1.00172 0.271593
1010.94 1.1986e-08 1.00247 0.269206
1010.99 1.18422e-08 1.00268 0.269154
1012.05 1.37797e-08 1.00283 0.265232
1000 0 1.00172 0.271826
1000 0 1.00172 0.271405
1000 0 1.00192 0.271696
1000 0 1.00172 0.27145
1000 0 1.00211 0.27222
1010.9 1.2297e-08 1.00265 0.270201
1000 0 1.00172 0.271968
1010.96 1.23314e-08 1.00247 0.269787
1000 0 1.00211 0.271882
1000 0 1.00212 0.271033
1000 0 1.00212 0.270361
1010.99 1.21339e-08 1.00247 0.269136
1000 0 1.00192 0.271725
1000 0 1.00211 0.271545
1000 0 1.00213 0.270402
1000 0 1.00211 0.2711
1010.72 1.23048e-08 1.00246 0.269886
1010.96 1.21175e-08 1.00248 0.268888
1010.8 1.22216e-08 1.00247 0.269405
1012.05 1.38074e-08 1.00283 0.26504
1000 0 1.00172 0.271463
1000 0 1.00211 0.271105
1010.88 1.227e-08 1.00246 0.270575
1010.93 1.22902e-08 1.00246 0.270334
1010.96 1.22397e-08 1.00247 0.269838
1012 1.38163e-08 1.00282 0.26632
1012.02 1.38132e-08 1.00282 0.265206
1000 0 1.00213 0.270749
1011.07 1.20317e-08 1.00248 0.268403
1012.05 1.38119e-08 1.00283 0.264971
1011.9 1.37047e-08 1.00281 0.259447
1000 0 1.00172 0.270842
1000 0 1.00172 0.27121
1000 0 1.00172 0.270718
1010.95 1.189e-08 1.00268 0.26905
1000 0 1.00172 0.271005
1000 0 1.00172 0.270714
1010.82 1.22446e-08 1.00267 0.269384
1000 0 1.00192 0.271154
1010.89 1.20246e-08 1.00267 0.269233
1011.03 1.18869e-08 1.00258 0.269038
1012.06 1.37748e-08 1.00283 0.26539
1000 0 1.00172 0.271545
1011.3 1.1894e-08 1.00271 0.269835
1011 1.22873e-08 1.00267 0.269564
1010.96 1.21043e-08 1.00267 0.26932
1012.02 1.38151e-08 1.00282 0.265052
1011.07 1.18337e-08 1.00249 0.269003
1012.04 1.37881e-08 1.00283 0.264946
1012.08 1.37894e-08 1.00284 0.265541
1011.94 1.3752e-08 1.00282 0.260482
1000 0 1.00172 0.272065
1000 0 1.00172 0.272011
1000 0 1.00172 0.271244
1000 0 1.00172 0.271398
1000 0 1.00172 0.271439
1000 0 1.00192 0.271788
1010.59 1.23273e-08 1.00256 0.270134
1000 0 1.00192 0.27152
1010.76 1.23632e-08 1.00256 0.269978
1000 0 1.00172 0.271458
1010.87 1.22724e-08 1.00265 0.270348
1010.94 1.23185e-08 1.00246 0.269918
1011.99 1.38132e-08 1.00281 0.267358
1010.98 1.23257e-08 1.00247 0.269663
1012 1.38223e-08 1.00282 0.26664
1000 0 1.00211 0.271324
1000 0 1.00211 0.272129
1000 0 1.00213 0.270328
1000 0 1.00211 0.27149
1010.94 1.22735e-08 1.00246 0.269642
1010.97 1.21899e-08 1.00247 0.269304
1011.02 1.20789e-08 1.00248 0.268957
1012.03 1.38112e-08 1.00283 0.264902
1000 0 1.00172 0.271429
1000 0 1.00211 0.271647
1010.59 1.23006e-08 1.00255 0.270219
1010.71 1.23217e-08 1.00246 0.270098
1000 0 1.00193 0.270632
1011.06 1.20749e-08 1.00248 0.268716
1010.76 1.22704e-08 1.00247 0.269642
1012.02 1.38118e-08 1.00282 0.266248
1012.06 1.38078e-08 1.00283 0.264718
1012.04 1.3809e-08 1.00282 0.265287
1011.9 1.37052e-08 1.00281 0.259451
1010.85 1.22604e-08 1.00265 0.270412
1010.91 1.22873e-08 1.00246 0.270427
1011.98 1.38087e-08 1.00281 0.267379
1012 1.38164e-08 1.00281 0.266776
1012.01 1.38153e-08 1.00281 0.265683
1011.88 1.36686e-08 1.0028 0.262426
1000 0 1.00173 0.271299
1011.89 1.36888e-08 1.0028 0.259988
1011.12 1.19975e-08 1.00269 0.268532
1012.08 1.38202e-08 1.00283 0.264732
1011.91 1.37231e-08 1.00281 0.258926
1011.84 1.36272e-08 1.0028 0.25576
1011.25 1.19723e-08 1.00271 0.269202
1012.18 1.38772e-08 1.00285 0.267714
1000 0 1.00172 0.270996
1000 0 1.00172 0.270739
1010.99 1.22121e-08 1.00267 0.269431
1000 0 1.00172 0.271543
1010.99 1.18422e-08 1.00268 0.268913
1010.94 1.1986e-08 1.00267 0.269211
1012.05 1.37797e-08 1.00283 0.265529
1000 0 1.00172 0.271709
1011.35 1.1925e-08 1.00271 0.270078
1010.81 1.23186e-08 1.00257 0.26952
1010.85 1.21393e-08 1.00257 0.269244
1012.04 1.38111e-08 1.00282 0.265077
1011.12 1.18747e-08 1.00269 0.26902
1012.05 1.3785e-08 1.00283 0.265095
1012.08 1.37856e-08 1.00284 0.265726
1011.94 1.37534e-08 1.00281 0.260128
1011.16 1.18585e-08 1.0027 0.269241
1011.41 1.19343e-08 1.00272 0.270379
1012.19 1.38596e-08 1.00285 0.268681
1012.01 1.38227e-08 1.00282 0.265486
1012.03 1.38027e-08 1.00283 0.264842
1011.88 1.36747e-08 1.0028 0.259528
1012.12 1.38119e-08 1.00284 0.2664
1011.92 1.37265e-08 1.00281 0.258698
1011.96 1.37764e-08 1.00282 0.261643
1011.88 1.36705e-08 1.00281 0.256922
1000 0 1.00173 0.272163
1000 0 1.00172 0.272131
1000 0 1.00172 0.2721
1011.35 1.199e-08 1.00271 0.269895
1000 0 1.00173 0.271595
1000 0 1.00172 0.271141
1000 0 1.00172 0.271334
1010.96 1.23314e-08 1.00266 0.270201
1010.9 1.2297e-08 1.00265 0.270373
1000 0 1.00172 0.271458
1000 0 1.00172 0.271458
1010.81 1.23003e-08 1.00265 0.270367
1010.89 1.23478e-08 1.00256 0.270103
1012.02 1.38089e-08 1.00281 0.267361
1010.76 1.23573e-08 1.00266 0.269938
1012.03 1.38175e-08 1.00282 0.266615
1010.84 1.22535e-08 1.00265 0.270385
1011.98 1.38075e-08 1.00281 0.267554
1012 1.38183e-08 1.00282 0.267083
1011.87 1.36601e-08 1.0028 0.265079
1012.01 1.38241e-08 1.00282 0.266082
1011.87 1.3662e-08 1.0028 0.263152
1000 0 1.00172 0.27144
1000 0 1.00211 0.272235
1010.88 1.227e-08 1.00266 0.270218
1010.93 1.22902e-08 1.00246 0.269849
1000 0 1.00173 0.27111
1011.07 1.20317e-08 1.00248 0.269036
1010.96 1.22397e-08 1.00247 0.269452
1012 1.38163e-08 1.00281 0.266164
1012.02 1.38132e-08 1.00282 0.265357
1012.05 1.38119e-08 1.00283 0.264492
1011.9 1.37047e-08 1.00281 0.259451
1010.76 1.22883e-08 1.00265 0.270391
1010.86 1.23169e-08 1.00246 0.27021
1012.02 1.38045e-08 1.00281 0.267292
1012.02 1.3812e-08 1.00281 0.266784
1000 0 1.00173 0.271199
1011.15 1.20413e-08 1.00259 0.268741
1012.08 1.38152e-08 1.00284 0.264662
1012.03 1.38109e-08 1.00282 0.265621
1011.87 1.3669e-08 1.0028 0.26217
1011.91 1.37237e-08 1.00281 0.258904
1011.89 1.36892e-08 1.00281 0.260114
1011.84 1.36272e-08 1.0028 0.255831
1011.33 1.20092e-08 1.00271 0.269073
1012.17 1.38717e-08 1.00285 0.267774
1011.98 1.38057e-08 1.00281 0.267571
1012 1.38141e-08 1.00281 0.26712
1011.88 1.36641e-08 1.0028 0.264958
1011.87 1.36633e-08 1.0028 0.262962
1011.88 1.36773e-08 1.0028 0.260948
1011.82 1.36006e-08 1.00279 0.259356
1011.18 1.19756e-08 1.0027 0.268647
1011.83 1.36143e-08 1.0028 0.256418
1012.11 1.38377e-08 1.00284 0.265516
1011.93 1.37449e-08 1.00281 0.258796
1011.85 1.36419e-08 1.0028 0.255281
1011.83 1.36213e-08 1.0028 0.254393
1012.16 1.38614e-08 1.00285 0.266836
1012.2 1.38956e-08 1.00285 0.268675
1012 1.38411e-08 1.00283 0.266138
1011 1.22873e-08 1.00267 0.269676
1000 0 1.00172 0.271943
1011.3 1.1894e-08 1.00271 0.270377
1010.96 1.21043e-08 1.00267 0.269278
1012.02 1.38151e-08 1.00282 0.26511
1011.07 1.18337e-08 1.00269 0.269067
1012.08 1.37894e-08 1.00284 0.265929
1012.04 1.37881e-08 1.00283 0.265247
1011.94 1.3752e-08 1.00281 0.259784
1011.24 1.18903e-08 1.0027 0.269452
1011.43 1.19558e-08 1.00272 0.270543
1012.18 1.38563e-08 1.00285 0.268791
1012.03 1.38182e-08 1.00282 0.265481
1012.04 1.37993e-08 1.00283 0.264925
1011.88 1.36755e-08 1.0028 0.259525
1012.12 1.38089e-08 1.00284 0.266588
1011.92 1.37274e-08 1.00281 0.258877
1011.96 1.37782e-08 1.00282 0.261641
1011.88 1.36707e-08 1.00281 0.256371
1011.51 1.19717e-08 1.00273 0.27064
1012.16 1.38374e-08 1.00285 0.267797
1012.2 1.3873e-08 1.00285 0.269692
1012.01 1.38621e-08 1.00283 0.267248
1011.87 1.36573e-08 1.0028 0.260369
1011.9 1.37007e-08 1.00281 0.258904
1011.83 1.36049e-08 1.0028 0.255612
1011.98 1.38046e-08 1.00283 0.263703
1011.85 1.36366e-08 1.0028 0.253868
1011.89 1.36848e-08 1.00281 0.257481
1011.87 1.36588e-08 1.00281 0.254936
1012.21 1.39089e-08 1.00285 0.27151
1011.69 1.20447e-08 1.00274 0.270756
1000 0 1.00173 0.272192
1000 0 1.00173 0.272167
1000 0 1.00173 0.272138
1011.47 1.20307e-08 1.00272 0.270236
1000 0 1.00173 0.271826
1011.42 1.20234e-08 1.00271 0.269656
1000 0 1.00173 0.271465
1010.98 1.23257e-08 1.00266 0.269961
1010.94 1.23185e-08 1.00266 0.270317
1012 1.38223e-08 1.00282 0.266582
1011.99 1.38132e-08 1.00281 0.267348
1010.87 1.22724e-08 1.00265 0.270393
1000 0 1.00172 0.271456
1010.49 1.22842e-08 1.00265 0.270382
1011.98 1.38036e-08 1.00281 0.26755
1012 1.38142e-08 1.00282 0.267043
1011.87 1.36601e-08 1.0028 0.26507
1012.03 1.38192e-08 1.00282 0.266047
1011.87 1.36624e-08 1.0028 0.263229
1011.97 1.38047e-08 1.00281 0.267621
1011.87 1.36565e-08 1.0028 0.265414
1011.87 1.36626e-08 1.0028 0.264438
1011.82 1.35994e-08 1.00279 0.262877
1011.87 1.36592e-08 1.0028 0.261703
1011.82 1.36001e-08 1.00279 0.26066
1010.85 1.22604e-08 1.00265 0.270366
1010.91 1.22873e-08 1.00246 0.269959
1011.98 1.38087e-08 1.00281 0.26722
1012 1.38164e-08 1.00282 0.266769
1000 0 1.00173 0.271087
1011.12 1.19975e-08 1.00249 0.26867
1012.08 1.38202e-08 1.00284 0.26459
1012.01 1.38153e-08 1.00282 0.265548
1011.88 1.36686e-08 1.0028 0.261901
1011.89 1.36888e-08 1.00281 0.260248
1011.91 1.37231e-08 1.00281 0.258852
1011.84 1.36272e-08 1.0028 0.255889
1011.25 1.19723e-08 1.00271 0.268932
1012.18 1.38772e-08 1.00285 0.267749
1011.98 1.38018e-08 1.00281 0.2675
1012 1.38102e-08 1.00281 0.267121
1011.87 1.36639e-08 1.0028 0.264869
1011.87 1.36634e-08 1.0028 0.26319
1011.22 1.20157e-08 1.0027 0.268637
1012.11 1.38327e-08 1.00284 0.26524
1011.93 1.37461e-08 1.00281 0.258908
1011.88 1.36777e-08 1.00281 0.26109
1011.82 1.36002e-08 1.00279 0.259057
1011.85 1.36423e-08 1.0028 0.254989
1011.83 1.36141e-08 1.0028 0.256435
1011.83 1.36208e-08 1.0028 0.254216
1012.15 1.38597e-08 1.00285 0.267071
1012 1.38449e-08 1.00283 0.266254
1012.19 1.38921e-08 1.00285 0.268507
1011.87 1.36591e-08 1.0028 0.26549
1011.87 1.36631e-08 1.0028 0.264063
1011.82 1.36038e-08 1.00279 0.263034
1011.82 1.35959e-08 1.00279 0.260102
1011.82 1.36037e-08 1.00279 0.257248
1011.81 1.35923e-08 1.00279 0.256552
1012.13 1.38502e-08 1.00284 0.266221
1011.82 1.36079e-08 1.00279 0.254267
1011.95 1.37728e-08 1.00282 0.260803
1011.87 1.36541e-08 1.00281 0.253361
1011.84 1.36364e-08 1.0028 0.252942
1011.82 1.36003e-08 1.0028 0.252539
1012.2 1.39075e-08 1.00285 0.269742
1011.99 1.38245e-08 1.00283 0.265212
1012.01 1.38583e-08 1.00283 0.267373
1011.96 1.37665e-08 1.00283 0.264889
1012.01 1.38227e-08 1.00282 0.265481
1011.41 1.19343e-08 1.00272 0.270683
1011.16 1.18585e-08 1.0027 0.269683
1012.19 1.38596e-08 1.00285 0.268926
1012.03 1.38027e-08 1.00283 0.265017
1011.88 1.36747e-08 1.0028 0.259519
1012.12 1.38119e-08 1.00284 0.26677
1011.96 1.37764e-08 1.00282 0.261628
1011.92 1.37265e-08 1.00281 0.259049
1011.88 1.36705e-08 1.00281 0.255869
1011.53 1.19899e-08 1.00273 0.270734
1012.14 1.38348e-08 1.00285 0.267783
1012.2 1.38715e-08 1.00285 0.269911
1012.02 1.38638e-08 1.00283 0.267376
1011.87 1.36578e-08 1.0028 0.260376
1011.9 1.37018e-08 1.00281 0.25891
1011.83 1.36047e-08 1.0028 0.255616
1011.98 1.38068e-08 1.00283 0.264013
1011.85 1.36374e-08 1.0028 0.254258
1011.89 1.36853e-08 1.00281 0.257148
1011.87 1.36597e-08 1.00281 0.255256
1011.61 1.20054e-08 1.00273 0.270747
1012.21 1.38842e-08 1.00285 0.270797
1012 1.38368e-08 1.00283 0.265972
1012.02 1.38782e-08 1.00284 0.268306
1011.98 1.37864e-08 1.00283 0.266015
1011.82 1.36095e-08 1.00279 0.256538
1011.83 1.36065e-08 1.0028 0.254266
1011.83 1.37087e-08 1.00279 0.252737
1011.92 1.37123e-08 1.00282 0.258797
1011.85 1.3658e-08 1.0028 0.250891
1011.87 1.36694e-08 1.00281 0.254243
1012.21 1.38976e-08 1.00285 0.271521
1012.01 1.38797e-08 1.00283 0.271078
1012.21 1.39225e-08 1.00285 0.271507
1012.21 1.39078e-08 1.00285 0.271513
1011.77 1.20855e-08 1.00253 0.271093
1011.7 1.20591e-08 1.00263 0.271079
1000 0 1.00216 0.271428
1000 0 1.00173 0.272173
1000 0 1.00173 0.272154
1011.59 1.2089e-08 1.00273 0.270538
1000 0 1.00173 0.272042
1011.51 1.20593e-08 1.00272 0.270103
1000 0 1.00173 0.271721
1011.35 1.199e-08 1.00271 0.269487
1000 0 1.00173 0.271362
1012.01 1.38241e-08 1.00282 0.266016
1012 1.38183e-08 1.00282 0.267023
1011.87 1.3662e-08 1.0028 0.263255
1011.87 1.36601e-08 1.0028 0.265063
1011.98 1.38075e-08 1.00281 0.267542
1010.84 1.22535e-08 1.00265 0.270361
1012.01 1.38005e-08 1.00281 0.267622
1011.87 1.36563e-08 1.0028 0.265409
1011.87 1.36628e-08 1.0028 0.264366
1011.82 1.35992e-08 1.00279 0.262789
1011.87 1.36598e-08 1.0028 0.261705
1011.82 1.35999e-08 1.00279 0.260647
1011.87 1.36559e-08 1.0028 0.265516
1011.82 1.35925e-08 1.00279 0.263573
1011.82 1.35958e-08 1.00279 0.262129
1011.82 1.36666e-08 1.00279 0.261954
1011.82 1.35969e-08 1.00279 0.258113
1011.81 1.36075e-08 1.00279 0.257891
1011.98 1.38057e-08 1.00281 0.267435
1012 1.38141e-08 1.00281 0.267159
1011.88 1.36641e-08 1.0028 0.264729
1011.87 1.36633e-08 1.0028 0.263443
1011.18 1.19756e-08 1.0027 0.268625
1012.11 1.38377e-08 1.00284 0.264953
1011.93 1.37449e-08 1.00282 0.259024
1011.88 1.36773e-08 1.00281 0.261242
1011.82 1.36006e-08 1.00279 0.25876
1011.83 1.36143e-08 1.0028 0.256451
1011.85 1.36419e-08 1.0028 0.254746
1011.83 1.36213e-08 1.0028 0.254097
1012.16 1.38614e-08 1.00285 0.267305
1012 1.38411e-08 1.00283 0.266409
1012.2 1.38956e-08 1.00285 0.268434
1011.87 1.36588e-08 1.0028 0.265428
1011.87 1.36632e-08 1.0028 0.264064
1011.82 1.36034e-08 1.00279 0.262814
1011.82 1.35956e-08 1.00279 0.260349
1012.13 1.38455e-08 1.00284 0.266099
1011.95 1.37743e-08 1.00282 0.260678
1011.87 1.36543e-08 1.00281 0.253648
1011.82 1.36034e-08 1.00279 0.257509
1011.81 1.35921e-08 1.00279 0.256361
1011.84 1.36363e-08 1.0028 0.252673
1011.82 1.36078e-08 1.00279 0.254284
1011.82 1.36001e-08 1.0028 0.252826
1011.99 1.38262e-08 1.00283 0.264948
1011.96 1.37658e-08 1.00283 0.264782
1012.2 1.39056e-08 1.00285 0.269642
1012.01 1.38593e-08 1.00283 0.267787
1011.82 1.3603e-08 1.00279 0.26358
1011.82 1.35912e-08 1.00279 0.26165
1011.81 1.36065e-08 1.00279 0.261995
1011.81 1.36018e-08 1.00279 0.257203
1011.82 1.36106e-08 1.00279 0.255147
1011.8 1.3581e-08 1.00279 0.255115
1011.97 1.37992e-08 1.00282 0.263549
1011.81 1.35957e-08 1.00279 0.252102
1011.89 1.36778e-08 1.00281 0.254545
1011.85 1.36517e-08 1.0028 0.250101
1011.83 1.36348e-08 1.0028 0.251483
1011.79 1.35052e-08 1.00279 0.251964
1012.21 1.39245e-08 1.00285 0.270469
1012.01 1.38666e-08 1.00283 0.268367
1011.94 1.37423e-08 1.00282 0.262595
1011.98 1.37898e-08 1.00283 0.266087
1011.95 1.37554e-08 1.00283 0.262774
1011.51 1.19717e-08 1.00273 0.270838
1011.87 1.36573e-08 1.0028 0.260392
1012.2 1.3873e-08 1.00285 0.270149
1012.16 1.38374e-08 1.00285 0.267702
1012.01 1.38621e-08 1.00283 0.267477
1011.9 1.37007e-08 1.00281 0.258906
1011.83 1.36049e-08 1.0028 0.255617
1011.98 1.38046e-08 1.00283 0.264305
1011.89 1.36848e-08 1.00281 0.25663
1011.85 1.36366e-08 1.00281 0.254655
1011.87 1.36588e-08 1.00281 0.255409
1011.61 1.202e-08 1.00273 0.270794
1012.2 1.38828e-08 1.00285 0.270895
1012 1.38374e-08 1.00283 0.266126
1012.02 1.38793e-08 1.00283 0.268608
1011.98 1.37871e-08 1.00283 0.265861
1011.82 1.36104e-08 1.00279 0.256483
1011.83 1.3606e-08 1.0028 0.254262
1011.83 1.37095e-08 1.00279 0.252685
1011.92 1.37137e-08 1.00282 0.25898
1011.85 1.3657e-08 1.0028 0.251248
1011.88 1.367e-08 1.00281 0.254107
1012.21 1.38899e-08 1.00285 0.271341
1012.02 1.38853e-08 1.00284 0.269352
1011.95 1.37507e-08 1.00283 0.2626
1012 1.38132e-08 1.00283 0.267199
1011.97 1.37798e-08 1.00283 0.263893
1011.81 1.36957e-08 1.00279 0.254567
1011.84 1.36902e-08 1.0028 0.25082
1011.71 1.3038e-08 1.00279 0.24991
1011.9 1.36978e-08 1.00282 0.254144
1011.86 1.37515e-08 1.0028 0.250447
1012.21 1.38964e-08 1.00285 0.271545
1012.01 1.38798e-08 1.00283 0.271033
1012.01 1.38811e-08 1.00283 0.271032
1012.01 1.38278e-08 1.00284 0.27001
1012.01 1.38819e-08 1.00283 0.271032
1012.21 1.3938e-08 1.00285 0.271536
1012.21 1.39209e-08 1.00285 0.271504
1011.85 1.21391e-08 1.00254 0.271093
1012.21 1.39089e-08 1.00285 0.271516
1011.78 1.20981e-08 1.00253 0.27129
1000 0 1.00216 0.271367
1011.69 1.20447e-08 1.00253 0.271278
1000 0 1.00194 0.271531
1000 0 1.00173 0.272147
1011.71 1.21433e-08 1.00274 0.270809
1011.62 1.2107e-08 1.00273 0.270388
1000 0 1.00173 0.272135
1000 0 1.00173 0.271913
1011.47 1.20307e-08 1.00272 0.269932
1000 0 1.00173 0.2716
1011.87 1.36592e-08 1.0028 0.261702
1011.87 1.36626e-08 1.0028 0.264346
1011.82 1.36001e-08 1.00279 0.260644
1011.82 1.35994e-08 1.00279 0.262698
1011.87 1.36565e-08 1.0028 0.265403
1011.97 1.38047e-08 1.00281 0.267615
1011.87 1.36556e-08 1.0028 0.26552
1011.82 1.35923e-08 1.00279 0.263613
1011.82 1.35954e-08 1.00279 0.262099
1011.82 1.36664e-08 1.00279 0.261831
1011.82 1.35963e-08 1.00279 0.25807
1011.81 1.36071e-08 1.00279 0.258057
1011.82 1.35859e-08 1.00279 0.263836
1011.84 1.37642e-08 1.00279 0.26281
1011.82 1.36798e-08 1.00279 0.260216
1011.78 1.35137e-08 1.00279 0.261097
1011.82 1.36556e-08 1.00279 0.256646
1011.82 1.36351e-08 1.00279 0.256799
1011.87 1.36591e-08 1.0028 0.265374
1011.87 1.36631e-08 1.0028 0.263987
1011.82 1.36038e-08 1.00279 0.262618
1011.82 1.35959e-08 1.00279 0.260595
1012.13 1.38502e-08 1.00284 0.265983
1011.95 1.37728e-08 1.00282 0.260591
1011.87 1.36541e-08 1.00281 0.253915
1011.82 1.36037e-08 1.0028 0.257765
1011.81 1.35923e-08 1.00279 0.256189
1011.82 1.36079e-08 1.00279 0.254303
1011.84 1.36364e-08 1.0028 0.252285
1011.82 1.36003e-08 1.0028 0.252958
1011.99 1.38245e-08 1.00283 0.264709
1011.96 1.37665e-08 1.00283 0.264737
1012.2 1.39075e-08 1.00285 0.269509
1012.01 1.38583e-08 1.00283 0.26787
1011.82 1.36028e-08 1.00279 0.263585
1011.81 1.35909e-08 1.00279 0.261628
1011.81 1.36064e-08 1.00279 0.261925
1011.81 1.36019e-08 1.00279 0.257417
1011.97 1.38014e-08 1.00282 0.263357
1011.89 1.36791e-08 1.00281 0.254965
1011.85 1.36507e-08 1.0028 0.249837
1011.82 1.36103e-08 1.00279 0.255332
1011.8 1.3581e-08 1.00279 0.255018
1011.83 1.36344e-08 1.0028 0.251185
1011.81 1.35951e-08 1.00279 0.252103
1011.79 1.35036e-08 1.00279 0.252125
1011.94 1.37442e-08 1.00282 0.262489
1011.95 1.37556e-08 1.00283 0.262473
1011.98 1.37868e-08 1.00283 0.26626
1012.2 1.39228e-08 1.00285 0.27039
1012.01 1.3867e-08 1.00283 0.26831
1011.83 1.3735e-08 1.00279 0.2626
1011.82 1.36402e-08 1.00279 0.260268
1011.79 1.35423e-08 1.00279 0.254857
1011.79 1.35165e-08 1.00279 0.253538
1011.92 1.3714e-08 1.00282 0.259175
1011.79 1.34706e-08 1.00279 0.248929
1011.88 1.36753e-08 1.00281 0.250386
1011.84 1.36943e-08 1.0028 0.246794
1011.78 1.33942e-08 1.00279 0.250387
1012.21 1.39386e-08 1.00285 0.270895
1012.01 1.38697e-08 1.00284 0.268859
1011.99 1.38062e-08 1.00283 0.26753
1011.93 1.37377e-08 1.00282 0.259686
1011.98 1.37845e-08 1.00283 0.264173
1011.94 1.37521e-08 1.00282 0.259962
1011.61 1.20054e-08 1.00273 0.270822
1012.21 1.38842e-08 1.00285 0.270975
1011.82 1.36095e-08 1.00279 0.256426
1012.02 1.38782e-08 1.00283 0.268903
1012 1.38368e-08 1.00283 0.266316
1011.98 1.37864e-08 1.00283 0.26571
1011.83 1.36065e-08 1.0028 0.254263
1011.83 1.37087e-08 1.00279 0.252642
1011.92 1.37123e-08 1.00282 0.259207
1011.87 1.36694e-08 1.00281 0.254135
1011.85 1.3658e-08 1.0028 0.251589
1012.21 1.38882e-08 1.00285 0.271386
1012.02 1.38861e-08 1.00284 0.269592
1011.95 1.37506e-08 1.00283 0.26279
1012 1.38143e-08 1.00283 0.26731
1011.97 1.37844e-08 1.00283 0.263629
1011.82 1.36904e-08 1.00279 0.254522
1011.84 1.36937e-08 1.0028 0.250849
1011.71 1.30329e-08 1.00279 0.249872
1011.9 1.36988e-08 1.00282 0.253918
1011.87 1.37547e-08 1.0028 0.25016
1012.02 1.38833e-08 1.00284 0.270497
1012.01 1.38245e-08 1.00283 0.267974