# vtk DataFile Version 2.0
Wound Healing Simulation
ASCII
DATASET UNSTRUCTURED_GRID
POINTS 3012 float
69.9759 18.75 4
67.2507 60.3285 4
69.976 18.75 2
73.0099 25.446 4
71.1327 20.9142 4
68.6801 16.6661 4
67.8269 19.9258 3.98554
67.2507 60.3286 2
71.1327 54.0858 4
68.6801 58.3339 4
65.6939 62.2254 4
65.3136 59.0027 3.98661
74.6784 42.3946 4
73.7221 47.2057 4
69.9759 18.75 0
73.0099 25.446 2
68.6801 16.6661 2
71.1327 20.9142 2
67.8274 19.9281 2
74.6792 32.6053 4
73.7222 27.7943 4
72.1454 23.1494 4
70.6152 26.2217 3.98501
68.887 21.9586 3.98538
67.2507 14.6715 4
66.6386 17.9707 3.98612
65.8005 21.0239 3.97851
67.2507 60.3285 0
71.1327 54.0858 2
68.6801 58.3339 2
65.694 62.2255 2
65.3146 59.0011 2
72.1454 51.8506 4
69.9759 56.25 4
68.8374 53.1128 3.9845
64.0165 64.0165 4
66.6121 57.1348 3.98619
63.8871 60.7676 3.98828
63.5035 57.7754 3.98085
60.3285 67.2507 4
74.6792 42.3947 2
73.7222 47.2057 2
74.9194 39.9526 4
74.2788 44.8158 4
72.1687 42.0857 3.98311
73.0099 49.554 4
71.2502 46.5981 3.98416
73.0099 25.446 0
71.1327 20.9142 0
68.6801 16.6661 0
67.8269 19.9258 0.0144596
74.6792 32.6053 2
73.7222 27.7943 2
67.2508 14.6715 2
72.1455 23.1494 2
70.6152 26.2222 2
66.6394 17.9727 2
68.8873 21.9605 2
65.8002 21.0238 2
74.9197 35.0474 4
74.2794 30.1841 4
72.1854 32.9433 3.98348
71.2792 28.4317 3.98467
69.8167 24.0605 3.98515
68.3493 26.9514 3.97611
66.7653 22.9329 3.97714
65.694 12.7746 4
65.3252 16.1016 3.98739
64.7175 19.1919 3.98011
63.891 22.0332 3.97451
71.1327 54.0858 0
65.6939 62.2254 0
68.6801 58.3339 0
65.3136 59.0027 0.013394
72.1455 51.8506 2
69.9759 56.25 2
68.8377 53.1106 2
64.0165 64.0165 2
66.613 57.1325 2
63.888 60.7667 2
63.5037 57.7763 2
62.2254 65.694 4
58.8951 65.4151 3.99249
69.7698 50.9885 3.9843
67.7849 55.1677 3.9852
66.6516 52.2099 3.97606
62.3373 62.4288 3.99021
64.6643 56.0344 3.98028
62.2054 59.4089 3.98197
61.8272 56.6866 3.97744
58.3339 68.6801 4
60.3285 67.2508 2
73.7221 47.2057 0
74.6784 42.3946 0
74.9197 39.9526 2
74.2794 44.8159 2
72.1685 42.0856 2
73.0099 49.554 2
71.2502 46.5977 2
75 37.5 4
72.4058 39.8023 3.98287
71.7833 44.3531 3.98372
69.8054 41.7901 3.9741
70.576 48.8133 3.98421
68.9145 46.0156 3.97524
74.6792 32.6053 0
73.7222 27.7943 0
67.2507 14.6715 0
72.1454 23.1494 0
70.6152 26.2217 0.0149861
68.887 21.9586 0.0146171
66.6386 17.9707 0.0138766
65.8005 21.0239 0.0214938
74.9197 35.0474 2
74.2794 30.1841 2
72.1851 32.9434 2
71.2792 28.4318 2
65.694 12.7745 2
65.3261 16.1027 2
69.8168 24.0618 2
68.3492 26.9516 2
64.7176 19.1912 2
66.765 22.9331 2
63.8909 22.0327 2
72.4136 35.2242 3.98289
71.8046 30.6764 3.98392
69.8415 33.2682 3.97468
68.9686 29.0379 3.97594
67.6136 24.9121 3.97625
66.1974 27.6338 3.97278
64.0165 10.9835 4
64.7596 23.8291 3.97337
63.8914 14.3253 3.9888
63.5169 17.4422 3.98209
62.9117 20.3164 3.97586
62.0963 22.9408 3.97225
60.6848 11.0962 3.99096
57.6132 11.4428 3.98534
72.1454 51.8506 0
69.9759 56.25 0
68.8374 53.1128 0.0155021
64.0165 64.0165 0
63.8871 60.7676 0.0117234
66.6121 57.1348 0.0138101
63.5035 57.7754 0.0191509
62.2255 65.694 2
58.8956 65.4151 2
69.77 50.987 2
67.7855 55.1652 2
66.6514 52.2096 2
62.338 62.4284 2
64.6644 56.035 2
62.2056 59.4099 2
61.8274 56.6876 2
60.6697 63.9781 3.99151
57.0258 66.736 3.9931
57.5591 63.6953 3.9868
67.5093 50.1772 3.97516
65.7048 54.1747 3.9778
64.5396 51.3869 3.97186
60.7749 60.9424 3.98349
62.8246 55.0722 3.97705
60.6617 58.1657 3.97804
60.3322 55.7917 3.97651
56.25 69.9759 4
58.3339 68.6801 2
60.3285 67.2507 0
58.922 9.65457 3.99176
62.2254 9.30607 4
73.0099 49.554 0
74.2788 44.8158 0
71.2502 46.5981 0.0158409
72.1687 42.0857 0.016893
74.9194 39.9526 0
75 37.5 2
72.4057 39.8024 2
71.7832 44.3527 2
69.8052 41.79 2
70.5761 48.8125 2
68.9145 46.0153 2
72.4891 37.5121 3.98268
70.0421 39.6576 3.97348
69.4323 43.9082 3.97481
67.5988 41.4984 3.97063
68.2679 48.1078 3.97505
66.7125 45.4416 3.9718
74.9197 35.0474 0
74.2794 30.1841 0
72.1854 32.9433 0.0165186
71.2792 28.4317 0.0153253
65.694 12.7746 0
65.3252 16.1016 0.0126094
69.8167 24.0605 0.0148481
68.3493 26.9514 0.023889
66.7653 22.9329 0.022859
64.7175 19.1919 0.0198922
63.891 22.0332 0.0254913
72.4135 35.2241 2
71.8046 30.6765 2
69.8413 33.2684 2
68.9686 29.038 2
64.0165 10.9835 2
63.8921 14.326 2
63.5171 17.4413 2
67.6134 24.9123 2
66.1973 27.6337 2
62.9119 20.3156 2
64.7594 23.8288 2
62.0963 22.9404 2
60.6854 11.0966 2
57.6134 11.442 2
70.0588 35.3919 3.97369
69.4688 31.1493 3.97497
67.6572 33.5904 3.97128
66.7751 29.6217 3.97216
65.5265 25.6987 3.97277
64.1492 28.2541 3.97194
62.3426 12.6534 3.98991
62.8592 24.636 3.97152
62.2017 15.7796 3.98328
61.8185 18.6788 3.97808
61.222 21.3376 3.97321
60.4279 23.7251 3.97177
59.2474 12.7742 3.98376
55.8751 10.2295 3.98684
56.4062 13.107 3.98208
69.7698 50.9885 0.0157049
62.2254 65.694 0
58.8951 65.4151 0.00751425
67.7849 55.1677 0.0147993
66.6516 52.2099 0.0239355
62.3373 62.4288 0.00978605
62.2054 59.4089 0.0180272
64.6643 56.0344 0.0197234
61.8272 56.6866 0.0225592
60.6703 63.9779 2
57.0262 66.736 2
57.5591 63.6964 2
67.5092 50.1768 2
65.7047 54.1749 2
64.5394 51.387 2
60.7751 60.9435 2
62.8248 55.0731 2
60.662 58.1668 2
60.3325 55.7925 2
55.0713 67.9329 3.99335
59.2206 62.3702 3.98456
55.8058 64.9131 3.98878
56.3282 62.0957 3.98313
65.3335 49.4097 3.97125
63.7089 53.2948 3.97352
62.4425 50.6542 3.96984
59.3357 59.5633 3.98073
61.0811 54.314 3.97591
59.2925 57.0188 3.97509
59.2461 55.1884 3.97772
48.1037 68.5808 3.98986
50.9488 69.9326 3.99369
54.0858 71.1327 4
56.25 69.976 2
58.3339 68.6801 0
57.0592 8.33465 3.99206
60.3285 7.74928 4
58.9225 9.65478 2
62.2255 9.30602 2
70.576 48.8133 0.0157877
71.7833 44.3531 0.0162772
68.9145 46.0156 0.0247612
69.8054 41.7901 0.0258987
72.4058 39.8023 0.0171339
75 37.5 0
72.489 37.5121 2
70.042 39.6575 2
69.4322 43.908 2
67.5986 41.4984 2
68.2678 48.1074 2
66.7124 45.4416 2
70.1301 37.5216 3.97357
67.8353 39.5128 3.97007
67.2259 43.4713 3.97113
65.5574 41.2109 3.97016
66.0709 47.4196 3.9717
64.6551 44.8505 3.97057
72.4136 35.2242 0.0171144
71.8046 30.6764 0.0160754
69.8415 33.2682 0.0253165
68.9686 29.0379 0.0240593
64.0165 10.9835 0
63.8914 14.3253 0.0112036
63.5169 17.4422 0.0179053
67.6136 24.9121 0.0237488
66.1974 27.6338 0.0272181
64.7596 23.8291 0.0266341
62.9117 20.3164 0.0241368
62.0963 22.9408 0.0277547
60.6848 11.0962 0.00904322
57.6132 11.4428 0.0146642
70.0587 35.392 2
69.4689 31.1494 2
67.6571 33.5904 2
66.7752 29.6216 2
62.3432 12.6539 2
62.2017 15.7788 2
61.8188 18.6777 2
65.5263 25.6986 2
64.1491 28.254 2
61.2222 21.3369 2
62.8591 24.6358 2
60.4279 23.7248 2
59.2474 12.7737 2
56.4062 13.106 2
55.8752 10.2287 2
67.8714 35.5474 3.97029
67.2672 31.6218 3.97122
65.6995 33.9267 3.97052
64.6657 30.1907 3.97074
63.5402 26.4132 3.9717
62.2602 28.7761 3.97204
60.7769 14.2188 3.98347
61.046 25.3361 3.97109
60.6163 17.1212 3.98045
60.2269 19.8106 3.97529
59.6641 22.2549 3.97145
58.9788 24.3177 3.97283
54.0381 9.13269 3.98758
57.9116 14.3258 3.98181
54.7874 12.0062 3.98347
55.3134 14.6389 3.9806
67.5093 50.1772 0.0248366
57.0258 66.736 0.00690398
60.6697 63.9781 0.00848918
57.5591 63.6953 0.013203
65.7048 54.1747 0.0221957
64.5396 51.3869 0.0281412
60.7749 60.9424 0.0165132
60.6617 58.1657 0.0219584
62.8246 55.0722 0.0229508
60.3322 55.7917 0.0234938
55.0715 67.933 2
59.2207 62.3713 2
55.8057 64.914 2
56.3282 62.0969 2
65.3333 49.4096 2
63.709 53.2953 2
62.4423 50.6543 2
59.3359 59.5647 2
61.0815 54.3148 2
59.2929 57.0196 2
59.2466 55.1889 2
53.0431 69.0008 3.99358
53.9681 66.0153 3.98941
57.8823 60.8759 3.98195
54.685 63.2127 3.98508
55.2127 60.6231 3.98135
63.195 48.6633 3.96982
61.743 52.5781 3.97123
60.2722 50.0222 3.96877
58.0206 58.2676 3.9774
59.3303 53.9516 3.97541
58.1293 55.8168 3.97319
50.1104 67.8588 3.98981
47.4643 66.5848 3.98749
46.0573 69.1602 3.98994
48.1037 68.5813 2
48.803 70.7238 3.99377
50.9491 69.9327 2
51.8506 72.1454 4
54.0858 71.1327 2
56.25 69.9759 0
55.1035 7.13917 3.99236
58.3339 6.31992 4
57.0596 8.33463 2
60.3286 7.74926 2
58.922 9.65457 0.00823815
62.2254 9.30607 0
68.2679 48.1078 0.0249472
69.4323 43.9082 0.025188
66.7125 45.4416 0.028204
67.5988 41.4984 0.0293744
70.0421 39.6576 0.0265247
72.4891 37.5121 0.0173205
70.13 37.5216 2
67.8353 39.5128 2
67.2258 43.4713 2
65.5572 41.2109 2
66.0708 47.4195 2
64.655 44.8505 2
67.9316 37.5221 3.97011
65.7884 39.3709 3.96981
65.1782 43.0269 3.97027
63.7535 40.9309 3.9711
63.9675 46.719 3.97046
62.8102 44.2189 3.97177
70.0588 35.3919 0.0263081
69.4688 31.1493 0.0250295
67.6572 33.5904 0.0287161
66.7751 29.6217 0.0278416
62.3426 12.6534 0.0100934
62.2017 15.7796 0.0167179
61.8185 18.6788 0.0219179
65.5265 25.6987 0.0272296
64.1492 28.2541 0.02806
62.8592 24.636 0.0284827
61.222 21.3376 0.0267853
60.4279 23.7251 0.0282333
59.2474 12.7742 0.0162416
56.4062 13.107 0.0179222
55.8751 10.2295 0.0131633
67.8713 35.5473 2
67.2673 31.6217 2
65.6994 33.9266 2
64.6658 30.1905 2
60.777 14.2182 2
60.6164 17.1201 2
60.2274 19.8096 2
63.5401 26.4131 2
62.2601 28.776 2
59.6644 22.2543 2
61.046 25.336 2
58.9789 24.3177 2
57.9114 14.325 2
55.3132 14.6379 2
54.0382 9.13201 2
54.7875 12.0051 2
65.8771 35.6666 3.96978
65.1877 32.1534 3.97003
64.2842 34.2494 3.97072
62.5977 30.6344 3.97118
61.6529 27.0706 3.97149
60.8528 29.1386 3.97306
59.3128 15.6626 3.98155
59.33 25.7942 3.97211
59.127 18.3488 3.97862
58.743 20.8492 3.9723
58.2858 23.0894 3.97086
57.9671 24.6623 3.97494
52.1128 8.15103 3.98817
53.0584 11.0124 3.98435
56.6779 15.7354 3.98088
53.81 13.6737 3.98189
54.3771 15.9909 3.98044
55.0713 67.9329 0.00664799
65.3335 49.4097 0.0287519
55.8058 64.9131 0.0112244
59.2206 62.3702 0.0154419
56.3282 62.0957 0.0168674
63.7089 53.2948 0.0264839
62.4425 50.6542 0.0301614
59.3357 59.5633 0.0192749
59.2925 57.0188 0.024909
61.0811 54.314 0.0240867
59.2461 55.1884 0.0222815
53.0433 69.0009 2
53.9679 66.016 2
57.8823 60.877 2
54.6849 63.2138 2
55.2127 60.6245 2
63.1949 48.6633 2
61.7433 52.5785 2
60.2719 50.0222 2
58.0211 58.2691 2
59.3309 53.952 2
58.1299 55.8169 2
52.0716 67.0019 3.98969
52.9543 64.2232 3.98656
56.65 59.4955 3.98009
[...]
POINT_DATA 3012
SCALARS rho_c_phif_kappa float 4
LOOKUP_TABLE default
1000 0 1.00084 0.250497
1000 0 1.00075 0.250734
1000 0 1.00084 0.25028
1000 0 1.00084 0.250551
1000 0 1.00084 0.250461
1000 0 1.00084 0.250521
1005.83 6.66461e-09 1.00091 0.250215
1000 0 1.00075 0.250733
1000 0 1.00075 0.250519
1000 0 1.00075 0.250564
1000 0 1.00084 0.250203
1005.82 6.5718e-09 1.00097 0.250061
1000 0 1.00084 0.250611
1000 0 1.00084 0.25062
1000 0 1.00084 0.250068
1000 0 1.00084 0.250486
1000 0 1.00084 0.250265
1000 0 1.00084 0.250301
1005.84 6.67355e-09 1.00091 0.250335
1000 0 1.00075 0.250785
1000 0 1.00084 0.250647
1000 0 1.00084 0.250475
1005.79 6.70921e-09 1.00091 0.250347
1005.82 6.68429e-09 1.00091 0.250265
1000 0 1.00084 0.250469
1005.84 6.64374e-09 1.00091 0.250128
1005.53 6.45656e-09 1.00097 0.250118
1000 0 1.00075 0.250729
1000 0 1.0008 0.250413
1000 0 1.00079 0.250406
1000 0 1.00075 0.250758
1005.82 6.58023e-09 1.00097 0.250075
1000 0 1.00084 0.250282
1000 0 1.00084 0.250168
1005.82 6.69034e-09 1.00092 0.250305
1000 0 1.00075 0.250667
1005.82 6.60999e-09 1.00092 0.250302
1005.85 6.54948e-09 1.00097 0.250177
1005.55 6.48742e-09 1.00097 0.250186
1000 0 1.00075 0.250868
1000 0 1.00075 0.250798
1000 0 1.0008 0.250676
1000 0 1.00075 0.25082
1000 0 1.00084 0.250709
1005.76 6.71487e-09 1.00096 0.250467
1000 0 1.00075 0.250692
1005.8 6.72959e-09 1.00092 0.250417
1000 0 1.00084 0.25044
1000 0 1.00084 0.250138
1000 0 1.00084 0.250024
1005.83 6.66461e-09 1.00091 0.250451
1000 0 1.00079 0.25085
1000 0 1.00084 0.250615
1000 0 1.00084 0.250228
1000 0 1.00084 0.250366
1005.77 6.71657e-09 1.00091 0.250371
1005.85 6.65239e-09 1.00091 0.250268
1005.82 6.69259e-09 1.00091 0.250357
1005.53 6.45401e-09 1.00097 0.25006
1000 0 1.00075 0.250823
1000 0 1.00084 0.250716
1005.75 6.7054e-09 1.00092 0.250501
1005.78 6.71368e-09 1.00091 0.250412
1005.81 6.69997e-09 1.00091 0.250294
1005.51 6.41801e-09 1.00097 0.249901
1005.52 6.44211e-09 1.00097 0.250025
1000 0 1.00084 0.25038
1005.87 6.62349e-09 1.00091 0.250073
1005.54 6.47122e-09 1.00098 0.25012
1005.44 6.33102e-09 1.00096 0.249351
1000 0 1.00075 0.25062
1000 0 1.00075 0.250735
1000 0 1.00075 0.250707
1005.82 6.5718e-09 1.00097 0.250092
1000 0 1.00075 0.250589
1000 0 1.00075 0.250634
1005.82 6.6989e-09 1.00096 0.250233
1000 0 1.00079 0.250423
1005.82 6.61887e-09 1.00097 0.250141
1005.84 6.5563e-09 1.00094 0.250234
1005.54 6.48469e-09 1.00097 0.250204
1000 0 1.00075 0.250831
1005.96 6.55251e-09 1.00097 0.250247
1005.82 6.71537e-09 1.00096 0.250366
1005.82 6.65347e-09 1.00096 0.250331
1005.52 6.43628e-09 1.00097 0.249926
1005.88 6.53855e-09 1.00092 0.250324
1005.54 6.47588e-09 1.00097 0.250138
1005.54 6.49451e-09 1.00097 0.250213
1005.45 6.35384e-09 1.00096 0.24987
1000 0 1.00075 0.250899
1000 0 1.00075 0.250862
1000 0 1.00075 0.250694
1000 0 1.00075 0.250799
1000 0 1.00075 0.250817
1000 0 1.0008 0.250742
1005.73 6.72378e-09 1.00094 0.250426
1000 0 1.0008 0.250573
1005.76 6.73738e-09 1.00094 0.250402
1000 0 1.00075 0.250837
1005.75 6.70317e-09 1.00096 0.250406
1005.78 6.72419e-09 1.00092 0.250429
1005.5 6.4091e-09 1.00096 0.249714
1005.81 6.72801e-09 1.00092 0.250317
1005.5 6.41208e-09 1.00096 0.249894
1000 0 1.00084 0.250607
1000 0 1.00084 0.250614
1000 0 1.00084 0.249989
1000 0 1.00084 0.250263
1005.79 6.70921e-09 1.00091 0.250387
1005.82 6.68429e-09 1.00091 0.250447
1005.84 6.64374e-09 1.00091 0.250402
1005.53 6.45656e-09 1.00097 0.250006
1000 0 1.00075 0.250803
1000 0 1.00084 0.250699
1005.72 6.71448e-09 1.00093 0.250421
1005.74 6.72129e-09 1.00091 0.250427
1000 0 1.00079 0.250428
1005.86 6.63062e-09 1.00092 0.25023
1005.79 6.70759e-09 1.00091 0.25035
1005.51 6.41585e-09 1.00097 0.24986
1005.54 6.46869e-09 1.00098 0.25007
1005.52 6.43956e-09 1.00097 0.250004
1005.44 6.33168e-09 1.00096 0.249345
1005.74 6.69968e-09 1.00096 0.250476
1005.77 6.71219e-09 1.00091 0.250438
1005.51 6.41199e-09 1.00097 0.249773
1005.5 6.41256e-09 1.00097 0.249848
1005.51 6.42862e-09 1.00097 0.249925
1005.41 6.29753e-09 1.00096 0.249188
1000 0 1.00075 0.250744
1005.43 6.31863e-09 1.00096 0.249244
1005.89 6.60382e-09 1.00097 0.250039
1005.54 6.48247e-09 1.00097 0.250154
1005.45 6.34411e-09 1.00096 0.249467
1005.45 6.34351e-09 1.00096 0.248729
1005.95 6.58637e-09 1.00097 0.250279
1005.51 6.48488e-09 1.00097 0.250743
1000 0 1.00075 0.250601
1000 0 1.00075 0.250673
1005.82 6.69034e-09 1.00096 0.250246
1000 0 1.00075 0.250772
1005.85 6.54948e-09 1.00097 0.250093
1005.82 6.60999e-09 1.00097 0.25015
1005.55 6.48742e-09 1.00097 0.250221
1000 0 1.00075 0.250826
1005.95 6.55611e-09 1.00097 0.25025
1005.8 6.72311e-09 1.00094 0.250362
1005.83 6.66238e-09 1.00094 0.250324
1005.52 6.43381e-09 1.00097 0.249944
1005.87 6.5437e-09 1.00097 0.250137
1005.54 6.4731e-09 1.00097 0.250172
1005.54 6.49227e-09 1.00097 0.250227
1005.45 6.35414e-09 1.00096 0.24985
1005.92 6.54206e-09 1.00097 0.250206
1006 6.56404e-09 1.00097 0.250224
1005.51 6.49015e-09 1.00097 0.250653
1005.51 6.42085e-09 1.00096 0.249921
1005.53 6.45847e-09 1.00097 0.249998
1005.43 6.31401e-09 1.00096 0.24919
1005.53 6.49513e-09 1.00097 0.250429
1005.45 6.34534e-09 1.00096 0.249635
1005.46 6.36203e-09 1.00097 0.249888
1005.47 6.36618e-09 1.00096 0.249308
1000 0 1.00075 0.250922
1000 0 1.00075 0.25089
1000 0 1.00075 0.250855
1005.99 6.58968e-09 1.00097 0.250276
1000 0 1.00075 0.250797
1000 0 1.00075 0.250639
1000 0 1.00075 0.250746
1005.8 6.72959e-09 1.00096 0.250408
1005.76 6.71487e-09 1.00096 0.250459
1000 0 1.00075 0.250833
1000 0 1.00075 0.250829
1005.72 6.7126e-09 1.00096 0.25043
1005.75 6.73245e-09 1.00094 0.250423
1005.51 6.4067e-09 1.00096 0.249718
1005.78 6.7354e-09 1.00096 0.250331
1005.51 6.40977e-09 1.00096 0.249885
1005.74 6.69615e-09 1.00096 0.250442
1005.5 6.40634e-09 1.00096 0.249634
1005.5 6.41165e-09 1.00096 0.249818
1005.4 6.28479e-09 1.00096 0.249128
1005.5 6.41374e-09 1.00096 0.249921
1005.41 6.29319e-09 1.00096 0.249217
1000 0 1.00075 0.250808
1000 0 1.00084 0.250709
1005.75 6.7054e-09 1.00095 0.250492
1005.78 6.71368e-09 1.00091 0.250431
1000 0 1.00075 0.25059
1005.87 6.62349e-09 1.00092 0.250389
1005.81 6.69997e-09 1.00091 0.250402
1005.51 6.41801e-09 1.00097 0.249819
1005.52 6.44211e-09 1.00097 0.249991
1005.54 6.47122e-09 1.00098 0.250016
1005.44 6.33102e-09 1.00096 0.249338
1005.71 6.70921e-09 1.00096 0.250452
1005.74 6.72034e-09 1.00091 0.25046
1005.51 6.40967e-09 1.00096 0.249762
1005.51 6.41039e-09 1.00097 0.249857
1000 0 1.00075 0.250755
1005.88 6.60981e-09 1.00094 0.250173
1005.54 6.47991e-09 1.00097 0.250155
1005.52 6.42627e-09 1.00097 0.249898
1005.41 6.29781e-09 1.00096 0.249137
1005.45 6.34478e-09 1.00096 0.249449
1005.43 6.31912e-09 1.00096 0.249258
1005.45 6.34376e-09 1.00096 0.248735
1005.94 6.59115e-09 1.00097 0.250232
1005.51 6.48314e-09 1.00097 0.250701
1005.5 6.40785e-09 1.00096 0.249669
1005.51 6.41199e-09 1.00097 0.249846
1005.4 6.28746e-09 1.00096 0.249212
1005.41 6.29267e-09 1.00096 0.249127
1005.42 6.30704e-09 1.00096 0.249165
1005.42 6.31203e-09 1.00096 0.24864
1005.92 6.59008e-09 1.00097 0.250176
1005.44 6.33138e-09 1.00096 0.248625
1005.53 6.48714e-09 1.00097 0.250372
1005.46 6.35594e-09 1.00096 0.249726
1005.46 6.35643e-09 1.00096 0.248869
1005.44 6.33714e-09 1.00096 0.248106
1005.52 6.48585e-09 1.00097 0.25063
1005.49 6.48198e-09 1.00097 0.250848
1005.46 6.36278e-09 1.00097 0.250475
1005.82 6.71537e-09 1.00096 0.250309
1000 0 1.00075 0.25082
1005.96 6.55251e-09 1.00097 0.250241
1005.82 6.65347e-09 1.00096 0.250193
1005.52 6.43628e-09 1.00097 0.249962
1005.88 6.53855e-09 1.00097 0.250194
1005.54 6.49451e-09 1.00097 0.250245
1005.54 6.47588e-09 1.00097 0.250199
1005.45 6.35384e-09 1.00096 0.249831
1005.91 6.54636e-09 1.00097 0.250236
1006 6.5672e-09 1.00097 0.250199
1005.51 6.48833e-09 1.00097 0.25069
1005.51 6.41851e-09 1.00096 0.249919
1005.53 6.45584e-09 1.00097 0.250033
1005.43 6.31474e-09 1.00096 0.249189
1005.53 6.49304e-09 1.00097 0.250433
1005.45 6.34572e-09 1.00096 0.249654
1005.46 6.36246e-09 1.00097 0.249889
1005.47 6.36616e-09 1.00096 0.249251
1006.04 6.57709e-09 1.00097 0.250173
1005.52 6.4919e-09 1.00097 0.250604
1005.5 6.48765e-09 1.00097 0.250734
1005.47 6.36616e-09 1.00097 0.250505
1005.42 6.29771e-09 1.00096 0.249193
1005.44 6.32758e-09 1.00096 0.249329
1005.44 6.34319e-09 1.00096 0.248555
1005.46 6.36631e-09 1.00097 0.250153
1005.46 6.36176e-09 1.00096 0.248941
1005.48 6.37082e-09 1.00097 0.249202
1005.47 6.3696e-09 1.00096 0.248733
1005.46 6.47741e-09 1.00097 0.250626
1006.12 6.60359e-09 1.00097 0.250103
1000 0 1.00075 0.250947
1000 0 1.00075 0.250917
1000 0 1.00075 0.250885
1006.03 6.60138e-09 1.00097 0.250208
1000 0 1.00075 0.25084
1005.98 6.59365e-09 1.00097 0.250271
1000 0 1.00075 0.2508
1005.81 6.72801e-09 1.00096 0.250366
1005.78 6.72419e-09 1.00096 0.250443
1005.5 6.41208e-09 1.00096 0.249879
1005.5 6.4091e-09 1.00096 0.249724
1005.75 6.70317e-09 1.00096 0.250451
1000 0 1.00075 0.250838
1005.69 6.70632e-09 1.00096 0.250442
1005.51 6.40391e-09 1.00096 0.249636
1005.51 6.40925e-09 1.00096 0.249819
1005.4 6.28513e-09 1.00096 0.249123
1005.51 6.41152e-09 1.00096 0.249912
1005.41 6.2934e-09 1.00096 0.249216
1005.5 6.40687e-09 1.00096 0.249625
1005.4 6.27767e-09 1.00096 0.249061
1005.4 6.28978e-09 1.00096 0.24919
1005.41 6.30951e-09 1.00096 0.248683
1005.41 6.29784e-09 1.00096 0.249218
1005.42 6.31143e-09 1.00096 0.248675
1005.74 6.69968e-09 1.00096 0.250421
1005.77 6.71219e-09 1.00091 0.250471
1005.51 6.41199e-09 1.00096 0.249749
1005.5 6.41256e-09 1.00097 0.249863
1000 0 1.00075 0.250774
1005.89 6.60382e-09 1.00092 0.250239
1005.54 6.48247e-09 1.00098 0.25015
1005.51 6.42862e-09 1.00097 0.249874
1005.41 6.29753e-09 1.00096 0.249086
1005.43 6.31863e-09 1.00096 0.24927
1005.45 6.34411e-09 1.00096 0.249431
1005.45 6.34351e-09 1.00096 0.248741
1005.95 6.58637e-09 1.00097 0.250199
1005.51 6.48488e-09 1.00097 0.250667
1005.51 6.40539e-09 1.00096 0.249665
1005.51 6.4099e-09 1.00097 0.249837
1005.4 6.28783e-09 1.00096 0.249187
1005.4 6.29291e-09 1.00096 0.249157
1005.91 6.59539e-09 1.00097 0.250133
1005.53 6.48481e-09 1.00097 0.250353
1005.46 6.3562e-09 1.00097 0.249764
1005.42 6.30747e-09 1.00096 0.249173
1005.42 6.31212e-09 1.00096 0.248594
1005.46 6.35684e-09 1.00096 0.248824
1005.44 6.3316e-09 1.00096 0.248625
1005.44 6.3375e-09 1.00096 0.248085
1005.52 6.48406e-09 1.00097 0.250629
1005.46 6.36307e-09 1.00097 0.250495
1005.49 6.48025e-09 1.00097 0.250794
1005.4 6.28335e-09 1.00096 0.249136
1005.4 6.28769e-09 1.00096 0.249205
1005.41 6.30175e-09 1.00096 0.248801
1005.41 6.30258e-09 1.00096 0.248639
1005.43 6.31962e-09 1.00096 0.248516
1005.41 6.30006e-09 1.00096 0.248209
1005.53 6.48712e-09 1.00097 0.250517
1005.43 6.32436e-09 1.00096 0.248032
1005.46 6.36169e-09 1.00097 0.250173
1005.47 6.36745e-09 1.00096 0.249067
1005.45 6.35528e-09 1.00096 0.248123
1005.44 6.3271e-09 1.00096 0.247474
1005.48 6.47791e-09 1.00097 0.250891
1005.46 6.36197e-09 1.00097 0.250507
1005.47 6.36332e-09 1.00097 0.250597
1005.49 6.38195e-09 1.00097 0.250133
1005.51 6.42085e-09 1.00096 0.249919
1006 6.56404e-09 1.00097 0.250166
1005.92 6.54206e-09 1.00097 0.250279
1005.51 6.49015e-09 1.00097 0.250737
1005.53 6.45847e-09 1.00097 0.250064
1005.43 6.31401e-09 1.00096 0.249185
1005.53 6.49513e-09 1.00097 0.250433
1005.46 6.36203e-09 1.00097 0.249888
1005.45 6.34534e-09 1.00096 0.249676
1005.47 6.36618e-09 1.00096 0.249195
1006.04 6.58011e-09 1.00097 0.250148
1005.52 6.48998e-09 1.00097 0.250617
1005.5 6.48599e-09 1.00097 0.250773
1005.46 6.36613e-09 1.00097 0.250498
1005.42 6.29799e-09 1.00096 0.249187
1005.44 6.32826e-09 1.00096 0.249332
1005.44 6.34345e-09 1.00096 0.24855
1005.46 6.36649e-09 1.00097 0.250153
1005.46 6.36194e-09 1.00096 0.248976
1005.48 6.37131e-09 1.00097 0.249187
1005.47 6.3697e-09 1.00096 0.248782
1006.08 6.58909e-09 1.00097 0.250135
1005.49 6.48425e-09 1.00097 0.25078
1005.46 6.36567e-09 1.00097 0.250419
1005.47 6.36629e-09 1.00097 0.25067
1005.49 6.38368e-09 1.00097 0.250038
1005.43 6.37352e-09 1.00096 0.248627
1005.45 6.35836e-09 1.00096 0.24859
1005.43 6.29662e-09 1.00096 0.2479
1005.48 6.37486e-09 1.00097 0.24945
1005.46 6.36464e-09 1.00096 0.248184
1005.48 6.4027e-09 1.00096 0.248537
1005.47 6.47976e-09 1.00097 0.250681
1005.47 6.36377e-09 1.00097 0.251048
1005.45 6.47401e-09 1.00097 0.250589
1005.46 6.47623e-09 1.00097 0.250633
1006.15 6.618e-09 1.00093 0.250301
1006.12 6.6064e-09 1.00095 0.250241
1000 0 1.00084 0.250526
1000 0 1.00075 0.250942
1000 0 1.00075 0.250913
1006.07 6.61805e-09 1.00097 0.250159
1000 0 1.00075 0.250874
1006.02 6.60481e-09 1.00097 0.250236
1000 0 1.00075 0.250844
1005.99 6.58968e-09 1.00097 0.250262
1000 0 1.00075 0.250805
1005.5 6.41374e-09 1.00096 0.249902
1005.5 6.41165e-09 1.00096 0.249819
1005.41 6.29319e-09 1.00096 0.249215
1005.4 6.28479e-09 1.00096 0.249118
1005.5 6.40634e-09 1.00096 0.249638
1005.74 6.69615e-09 1.00096 0.250428
1005.51 6.40423e-09 1.00096 0.249623
1005.4 6.27801e-09 1.00096 0.249058
1005.4 6.29006e-09 1.00096 0.249187
1005.41 6.30961e-09 1.00096 0.248648
1005.41 6.29815e-09 1.00096 0.249212
1005.42 6.31131e-09 1.00096 0.248674
1005.4 6.27228e-09 1.00096 0.249055
1005.41 6.32124e-09 1.00095 0.248647
1005.42 6.30583e-09 1.00096 0.248671
1005.41 6.28327e-09 1.00095 0.248292
1005.42 6.3139e-09 1.00096 0.248673
1005.41 6.30709e-09 1.00096 0.248136
1005.5 6.40785e-09 1.00096 0.249664
1005.51 6.41199e-09 1.00097 0.249826
1005.4 6.28746e-09 1.00096 0.249163
1005.41 6.29267e-09 1.00096 0.249188
1005.92 6.59008e-09 1.00097 0.250095
1005.53 6.48714e-09 1.00097 0.25034
1005.46 6.35594e-09 1.00097 0.249806
1005.42 6.30704e-09 1.00096 0.249183
1005.42 6.31203e-09 1.00096 0.248547
1005.44 6.33138e-09 1.00096 0.248625
1005.46 6.35643e-09 1.00096 0.248779
1005.44 6.33714e-09 1.00096 0.248062
1005.52 6.48585e-09 1.00097 0.250621
1005.46 6.36278e-09 1.00097 0.250511
1005.49 6.48198e-09 1.00097 0.250749
1005.4 6.28369e-09 1.00096 0.249118
1005.4 6.28788e-09 1.00096 0.249194
1005.41 6.30177e-09 1.00096 0.248775
1005.42 6.30238e-09 1.00096 0.248651
1005.52 6.48508e-09 1.00097 0.250529
1005.46 6.36151e-09 1.00097 0.250175
1005.47 6.36763e-09 1.00096 0.2491
1005.43 6.31964e-09 1.00096 0.248557
1005.41 6.29981e-09 1.00096 0.248162
1005.46 6.35581e-09 1.00096 0.248079
1005.43 6.32438e-09 1.00096 0.248047
1005.44 6.32704e-09 1.00096 0.247433
1005.46 6.36212e-09 1.00097 0.250507
1005.49 6.38211e-09 1.00097 0.250135
1005.48 6.47636e-09 1.00097 0.250856
1005.46 6.36321e-09 1.00097 0.250622
1005.41 6.30968e-09 1.00095 0.248751
1005.41 6.3164e-09 1.00096 0.248737
1005.41 6.31668e-09 1.00095 0.248452
1005.41 6.31101e-09 1.00095 0.248231
1005.42 6.31971e-09 1.00096 0.248003
1005.41 6.30634e-09 1.00095 0.247795
1005.46 6.36207e-09 1.00097 0.250432
1005.43 6.32022e-09 1.00096 0.247348
1005.48 6.3731e-09 1.00097 0.249585
1005.47 6.38714e-09 1.00096 0.248351
1005.45 6.32548e-09 1.00096 0.247391
1005.44 6.33146e-09 1.00096 0.246848
1005.47 6.47454e-09 1.00097 0.250859
1005.47 6.36164e-09 1.00097 0.250811
1005.48 6.38015e-09 1.00097 0.250224
1005.49 6.38322e-09 1.00097 0.25012
1005.48 6.38306e-09 1.00097 0.249989
1006.04 6.57709e-09 1.00097 0.250123
1005.42 6.29771e-09 1.00096 0.24918
1005.5 6.48765e-09 1.00097 0.250822
1005.52 6.4919e-09 1.00097 0.250622
1005.47 6.36616e-09 1.00097 0.250491
1005.44 6.32758e-09 1.00096 0.249335
1005.44 6.34319e-09 1.00096 0.248544
1005.46 6.36631e-09 1.00097 0.250151
1005.48 6.37082e-09 1.00097 0.249164
1005.46 6.36176e-09 1.00096 0.249011
1005.47 6.3696e-09 1.00096 0.248832
1006.08 6.59203e-09 1.00097 0.250116
1005.49 6.48276e-09 1.00097 0.250803
1005.46 6.36585e-09 1.00097 0.250419
1005.47 6.36607e-09 1.00097 0.250677
1005.49 6.38332e-09 1.00097 0.250023
1005.43 6.37456e-09 1.00096 0.248625
1005.45 6.35842e-09 1.00096 0.248578
1005.43 6.29746e-09 1.00096 0.247865
1005.48 6.37485e-09 1.00097 0.249458
1005.46 6.3643e-09 1.00096 0.248262
1005.48 6.40295e-09 1.00096 0.248552
1005.48 6.4823e-09 1.00097 0.25074
1005.47 6.36542e-09 1.00097 0.250858
1005.49 6.37923e-09 1.00097 0.249879
1005.49 6.38125e-09 1.00097 0.250157
1005.48 6.39126e-09 1.00097 0.249692
1005.4 6.05089e-09 1.00096 0.248183
1005.45 6.36058e-09 1.00096 0.24767
1005.43 6.30828e-09 1.00096 0.24687
1005.49 6.4215e-09 1.00097 0.248699
1005.45 6.30675e-09 1.00096 0.247765
1005.47 6.47858e-09 1.00097 0.250689
1005.47 6.36412e-09 1.00097 0.251003
1005.47 6.36375e-09 1.00097 0.251048
1005.49 6.38619e-09 1.00097 0.250776
1005.47 6.36317e-09 1.00097 0.251043
1005.43 6.46934e-09 1.00097 0.250575
1005.45 6.47296e-09 1.00097 0.250593
1006.19 6.63664e-09 1.00093 0.250283
1005.46 6.47741e-09 1.00097 0.25064
1006.15 6.62065e-09 1.00093 0.250345
1000 0 1.00084 0.250537
1006.12 6.60359e-09 1.00093 0.250335
1000 0 1.0008 0.250665
1000 0 1.00075 0.250939
1006.11 6.63556e-09 1.00097 0.250123
1006.07 6.62133e-09 1.00097 0.250183
1000 0 1.00075 0.250903
1000 0 1.00075 0.250878
1006.03 6.60138e-09 1.00097 0.250254
1000 0 1.00075 0.250846
1005.41 6.29784e-09 1.00096 0.249206
1005.4 6.28978e-09 1.00096 0.249185
1005.42 6.31143e-09 1.00096 0.248674
1005.41 6.30951e-09 1.00096 0.248614
1005.4 6.27767e-09 1.00096 0.249055
1005.5 6.40687e-09 1.00096 0.249619
1005.4 6.27277e-09 1.00096 0.249054
1005.41 6.32147e-09 1.00095 0.248659
1005.42 6.3058e-09 1.00096 0.248672
1005.41 6.28357e-09 1.00095 0.248238
1005.42 6.31396e-09 1.00096 0.248669
1005.41 6.30725e-09 1.00096 0.248103
1005.41 6.35719e-09 1.00095 0.248707
1005.4 6.25151e-09 1.00095 0.248377
1005.41 6.31938e-09 1.00095 0.248141
1005.41 6.26165e-09 1.00095 0.247967
1005.42 6.33916e-09 1.00096 0.248155
1005.41 6.22807e-09 1.00095 0.247691
1005.4 6.28335e-09 1.00096 0.249099
1005.4 6.28769e-09 1.00096 0.249182
1005.41 6.30175e-09 1.00095 0.248749
1005.41 6.30258e-09 1.00096 0.248663
1005.53 6.48712e-09 1.00097 0.250538
1005.46 6.36169e-09 1.00097 0.250175
1005.47 6.36745e-09 1.00097 0.24913
1005.43 6.31962e-09 1.00096 0.248598
1005.41 6.30006e-09 1.00096 0.248114
1005.43 6.32436e-09 1.00096 0.24806
1005.45 6.35528e-09 1.00096 0.248038
1005.44 6.3271e-09 1.00096 0.247384
1005.46 6.36197e-09 1.00097 0.250512
1005.49 6.38195e-09 1.00097 0.250141
1005.48 6.47791e-09 1.00097 0.250822
1005.47 6.36332e-09 1.00097 0.250648
1005.41 6.3101e-09 1.00095 0.248756
1005.41 6.3169e-09 1.00096 0.24874
1005.41 6.31761e-09 1.00095 0.248457
1005.41 6.31204e-09 1.00095 0.248246
1005.46 6.36196e-09 1.00097 0.250439
1005.48 6.37297e-09 1.00097 0.249635
1005.47 6.38783e-09 1.00096 0.248321
1005.42 6.32053e-09 1.00096 0.248046
1005.41 6.3078e-09 1.00095 0.247796
1005.45 6.32626e-09 1.00096 0.247384
1005.43 6.32145e-09 1.00096 0.247349
1005.44 6.33207e-09 1.00096 0.246874
1005.48 6.3799e-09 1.00097 0.250231
1005.48 6.38293e-09 1.00097 0.249988
1005.49 6.38308e-09 1.00097 0.25011
1005.47 6.47318e-09 1.00097 0.250841
1005.47 6.36155e-09 1.00097 0.250829
1005.41 6.23661e-09 1.00095 0.248376
1005.4 6.23666e-09 1.00095 0.248246
1005.4 6.24652e-09 1.00095 0.247763
1005.4 6.25287e-09 1.00096 0.247439
1005.48 6.37697e-09 1.00097 0.250093
1005.41 6.25087e-09 1.00096 0.246207
1005.48 6.41236e-09 1.00097 0.248961
1005.46 6.30437e-09 1.00096 0.247509
1005.45 6.34179e-09 1.00096 0.246664
1005.46 6.46996e-09 1.00097 0.2508
1005.47 6.3572e-09 1.00097 0.25095
1005.49 6.38869e-09 1.00097 0.2503
1005.48 6.38725e-09 1.00097 0.250053
1005.48 6.3908e-09 1.00097 0.249773
1005.48 6.38438e-09 1.00097 0.249947
1006.08 6.58909e-09 1.00097 0.250095
1005.49 6.48425e-09 1.00097 0.250821
1005.43 6.37352e-09 1.00096 0.248624
1005.47 6.36629e-09 1.00097 0.250681
1005.46 6.36567e-09 1.00097 0.250424
1005.49 6.38368e-09 1.00097 0.250009
1005.45 6.35836e-09 1.00096 0.248569
1005.43 6.29662e-09 1.00096 0.247833
1005.48 6.37486e-09 1.00097 0.249471
1005.48 6.4027e-09 1.00097 0.248566
1005.46 6.36464e-09 1.00096 0.248334
1005.48 6.48095e-09 1.00097 0.25075
1005.47 6.36522e-09 1.00097 0.25088
1005.49 6.37897e-09 1.00097 0.249886
1005.49 6.38093e-09 1.00097 0.250161
1005.48 6.39108e-09 1.00097 0.249666
1005.4 6.04794e-09 1.00096 0.248151
1005.45 6.36213e-09 1.00096 0.247689
1005.43 6.3066e-09 1.00096 0.246813
1005.49 6.42138e-09 1.00097 0.248673