# vtk DataFile Version 2.0
Wound Healing Simulation
ASCII
DATASET UNSTRUCTURED_GRID
POINTS 3012 float
69.9759 18.75 4
67.2507 60.3285 4
69.976 18.75 2
73.0099 25.446 4
71.1327 20.9142 4
68.6801 16.6661 4
67.8187 19.9236 3.96882
67.2507 60.3286 2
71.1327 54.0858 4
68.6801 58.3339 4
65.6939 62.2254 4
65.3049 58.9999 3.96788
74.6784 42.3946 4
73.7221 47.2057 4
69.9759 18.75 0
73.0099 25.446 2
68.6801 16.6661 2
71.1327 20.9142 2
67.8192 19.9281 2
74.6792 32.6053 4
73.7222 27.7943 4
72.1454 23.1494 4
70.6102 26.2215 3.97048
68.8799 21.9562 3.96934
67.2507 14.6715 4
66.6293 17.9702 3.96776
65.6795 21.0657 3.96046
67.2507 60.3285 0
71.1327 54.0858 2
68.6801 58.3339 2
65.694 62.2255 2
65.3065 58.9936 2
72.1454 51.8506 4
69.9759 56.25 4
68.8304 53.1152 3.96917
64.0165 64.0165 4
66.6032 57.1348 3.96854
63.8778 60.7612 3.96363
63.4022 57.7275 3.95673
60.3285 67.2507 4
74.6792 42.3947 2
73.7222 47.2057 2
74.9194 39.9526 4
74.2788 44.8158 4
72.1652 42.0858 3.97307
73.0099 49.554 4
71.2457 46.5983 3.97138
73.0099 25.446 0
71.1327 20.9142 0
68.6801 16.6661 0
67.8187 19.9236 0.0311804
74.6792 32.6053 2
73.7222 27.7943 2
67.2508 14.6715 2
72.1455 23.1494 2
70.6094 26.2229 2
66.6306 17.9755 2
68.8798 21.9594 2
65.6813 21.0669 2
74.9197 35.0474 4
74.2794 30.1841 4
72.1819 32.9449 3.97319
71.2749 28.4327 3.97119
69.8107 24.059 3.96975
68.2654 26.9755 3.96435
66.6593 22.9674 3.96262
65.694 12.7746 4
65.3156 16.1037 3.96704
64.5858 19.2412 3.95789
63.6045 22.1467 3.96728
71.1327 54.0858 0
65.6939 62.2254 0
68.6801 58.3339 0
65.3049 58.9999 0.0321232
72.1455 51.8506 2
69.9759 56.25 2
68.8304 53.1115 2
64.0165 64.0165 2
66.6046 57.1289 2
63.8792 60.7537 2
63.3945 57.7268 2
62.2254 65.694 4
58.8875 65.4091 3.97286
69.7638 50.9904 3.9698
67.7769 55.1696 3.96897
66.5362 52.1741 3.96303
62.3284 62.4221 3.96631
64.5421 55.988 3.95907
62.1539 59.3626 3.95229
61.5791 56.5607 3.96189
58.3339 68.6801 4
60.3285 67.2508 2
73.7221 47.2057 0
74.6784 42.3946 0
74.9197 39.9526 2
74.2794 44.8159 2
72.1641 42.0848 2
73.0099 49.554 2
71.2448 46.5966 2
75 37.5 4
72.4025 39.8028 3.97395
71.7792 44.353 3.97242
69.7674 41.7849 3.96833
70.5709 48.8143 3.97068
68.8407 45.9986 3.96722
74.6792 32.6053 0
73.7222 27.7943 0
67.2507 14.6715 0
72.1454 23.1494 0
70.6102 26.2215 0.0295163
68.8799 21.9562 0.0306643
66.6293 17.9702 0.0322378
65.6795 21.0657 0.0395382
74.9197 35.0474 2
74.2794 30.1841 2
72.1806 32.9451 2
71.2738 28.4338 2
65.694 12.7745 2
65.3166 16.1102 2
69.8102 24.0612 2
68.2678 26.9764 2
64.5797 19.2437 2
66.6614 22.9686 2
63.6049 22.1475 2
72.4104 35.2255 3.97401
71.8009 30.678 3.97258
69.8028 33.2777 3.96772
68.8993 29.0569 3.96564
67.5184 24.9409 3.96356
65.9108 27.713 3.97532
64.0165 10.9835 4
64.4694 23.9314 3.97069
63.8805 14.3313 3.96308
63.3945 17.4954 3.95448
62.6338 20.4406 3.96415
61.645 23.1284 3.97391
60.6765 11.1059 3.96796
57.6 11.5082 3.9633
72.1454 51.8506 0
69.9759 56.25 0
68.8304 53.1152 0.0308329
64.0165 64.0165 0
63.8778 60.7612 0.0363701
66.6032 57.1348 0.0314573
63.4022 57.7275 0.0432681
62.2255 65.694 2
58.8912 65.4026 2
69.7636 50.9876 2
67.7776 55.1646 2
66.5369 52.1729 2
62.3311 62.4125 2
64.5351 55.9863 2
62.1478 59.3628 2
61.5855 56.5628 2
60.6615 63.97 3.96718
57.019 66.7284 3.97333
57.5418 63.6345 3.9671
67.4004 50.1466 3.96425
65.5854 54.134 3.96131
64.2279 51.2804 3.97198
60.7523 60.8919 3.95386
62.5465 54.9511 3.96616
60.416 58.026 3.9573
59.9547 55.6014 3.96823
56.25 69.9759 4
58.3339 68.6801 2
60.3285 67.2507 0
58.916 9.66459 3.96983
62.2254 9.30607 4
73.0099 49.554 0
74.2788 44.8158 0
71.2457 46.5983 0.0286201
72.1652 42.0858 0.0269328
74.9194 39.9526 0
75 37.5 2
72.4017 39.802 2
71.7785 44.3515 2
69.7687 41.7844 2
70.5704 48.8122 2
68.8433 45.9979 2
72.4861 37.513 3.97384
70.0133 39.6565 3.96831
69.3813 43.8979 3.96816
67.3271 41.4698 3.9766
68.1727 48.0835 3.96561
66.4079 45.3769 3.9763
74.9197 35.0474 0
74.2794 30.1841 0
72.1819 32.9449 0.0268075
71.2749 28.4327 0.0288087
65.694 12.7746 0
65.3156 16.1037 0.0329553
69.8107 24.059 0.0302456
68.2654 26.9755 0.0356469
66.6593 22.9674 0.0373771
64.5858 19.2412 0.0421088
63.6045 22.1467 0.0327232
72.4096 35.2252 2
71.8 30.6788 2
69.805 33.2781 2
68.9028 29.0575 2
64.0165 10.9835 2
63.8827 14.3386 2
63.4078 17.4922 2
67.521 24.942 2
65.9079 27.7145 2
62.6409 20.4397 2
64.4683 23.9327 2
61.6457 23.1304 2
60.6793 11.1118 2
57.5964 11.4964 2
70.0268 35.3976 3.96793
69.4179 31.1629 3.96679
67.3932 33.6237 3.97644
66.4905 29.6878 3.97639
65.2415 25.7893 3.97372
63.6568 28.383 3.97546
62.3327 12.6605 3.96622
62.3918 24.8109 3.97428
62.15 15.8241 3.95255
61.5428 18.8169 3.96034
60.7879 21.5382 3.97046
59.8348 23.9839 3.97407
59.2295 12.8329 3.95844
55.8662 10.2887 3.9697
56.3667 13.2144 3.9605
69.7638 50.9904 0.0302023
62.2254 65.694 0
58.8875 65.4091 0.0271361
67.7769 55.1696 0.0310295
66.5362 52.1741 0.0369708
62.3284 62.4221 0.0336935
62.1539 59.3626 0.0477136
64.5421 55.988 0.0409312
61.5791 56.5607 0.0381118
60.6657 63.9628 2
57.0229 66.7225 2
57.5462 63.6449 2
67.4012 50.1454 2
65.584 54.1328 2
64.2266 51.2797 2
60.7439 60.8943 2
62.551 54.9526 2
60.4146 58.026 2
59.9521 55.6 2
55.0649 67.9297 3.9807
59.2078 62.3045 3.97006
55.7835 64.8449 3.9672
56.3007 61.9987 3.97985
65.0154 49.3142 3.97405
63.4028 53.1784 3.96881
61.925 50.4712 3.97348
59.1894 59.4405 3.95408
60.6512 54.1223 3.97224
58.87 56.8003 3.95987
58.7551 54.9505 3.97099
48.096 68.566 3.97761
50.9433 69.9294 3.98429
54.0858 71.1327 4
56.25 69.976 2
58.3339 68.6801 0
57.0548 8.33904 3.97736
60.3285 7.74928 4
58.9184 9.67006 2
62.2255 9.30602 2
70.5709 48.8143 0.0293163
71.7792 44.353 0.0275821
68.8407 45.9986 0.0327808
69.7674 41.7849 0.0316674
72.4025 39.8028 0.0260537
75 37.5 0
72.4847 37.5124 2
70.0151 39.6562 2
69.3819 43.8972 2
67.3238 41.4694 2
68.1725 48.0823 2
66.404 45.3759 2
70.1013 37.5239 3.96818
67.5745 39.5011 3.97654
66.938 43.4254 3.97647
65.1026 41.17 3.97617
65.7524 47.338 3.9758
64.1566 44.7585 3.97561
72.4104 35.2255 0.0259922
71.8009 30.678 0.0274248
69.8028 33.2777 0.0322767
68.8993 29.0569 0.0343589
64.0165 10.9835 0
63.8805 14.3313 0.0369205
63.3945 17.4954 0.0455199
67.5184 24.9409 0.0364359
65.9108 27.713 0.0246755
64.4694 23.9314 0.029307
62.6338 20.4406 0.0358493
61.645 23.1284 0.0260919
60.6765 11.1059 0.0320387
57.6 11.5082 0.0367035
70.0288 35.3978 2
69.4204 31.1634 2
67.3904 33.6243 2
66.487 29.6892 2
62.3358 12.6675 2
62.1575 15.8247 2
61.5506 18.8161 2
65.2394 25.7908 2
63.6558 28.3835 2
60.7887 21.5402 2
62.391 24.8124 2
59.8328 23.9861 2
59.2271 12.8277 2
56.3623 13.2067 2
55.8663 10.2916 2
67.616 35.566 3.97661
66.9927 31.6724 3.97649
65.2605 33.9744 3.9763
64.1797 30.2939 3.97554
63.0585 26.5693 3.97454
61.5979 28.9528 3.97503
60.7488 14.2674 3.95233
60.419 25.5737 3.97426
60.3765 17.2639 3.95807
59.7864 20.0315 3.9656
59.084 22.5276 3.97213
58.259 24.6365 3.97393
54.038 9.16084 3.98472
57.8269 14.4453 3.95209
54.7672 12.1213 3.97242
55.2143 14.8065 3.95314
67.4004 50.1466 0.0357546
57.019 66.7284 0.0266676
60.6615 63.97 0.0328246
57.5418 63.6345 0.0329019
65.5854 54.134 0.0386871
64.2279 51.2804 0.0280219
60.7523 60.8919 0.0461445
60.416 58.026 0.0426951
62.5465 54.9511 0.033837
59.9547 55.6014 0.0317699
55.0699 67.9238 2
59.2043 62.3102 2
55.7877 64.8393 2
56.2974 62.0025 2
65.0132 49.3131 2
63.403 53.1785 2
61.9243 50.4707 2
59.2144 59.4492 2
60.6503 54.1215 2
58.8789 56.8021 2
58.7636 54.9515 2
53.0367 68.9954 3.98106
53.9511 65.9754 3.96924
57.8169 60.784 3.94995
54.6492 63.0903 3.9656
55.1498 60.5045 3.97495
62.6659 48.502 3.97412
61.2642 52.3862 3.97307
59.5624 49.7622 3.97278
57.7285 58.0811 3.95625
58.7818 53.7002 3.97262
57.5474 55.5386 3.96271
50.1006 67.843 3.97331
47.4495 66.5522 3.97385
46.0513 69.1466 3.98032
48.1006 68.5664 2
48.7975 70.7208 3.9869
50.9488 69.926 2
51.8506 72.1454 4
54.0858 71.1327 2
56.25 69.9759 0
55.1011 7.14208 3.99076
58.3339 6.31992 4
57.0582 8.34385 2
60.3286 7.74926 2
58.916 9.66459 0.0301685
62.2254 9.30607 0
68.1727 48.0835 0.0343886
69.3813 43.8979 0.0318442
66.4079 45.3769 0.0237038
67.3271 41.4698 0.0233967
70.0133 39.6565 0.0316882
72.4861 37.513 0.0261606
70.1042 37.5239 2
67.5711 39.5009 2
66.9355 43.4242 2
65.1025 41.1698 2
65.7496 47.3367 2
64.1562 44.7584 2
67.6774 37.5261 3.97649
65.3447 39.3524 3.97636
64.7072 42.9583 3.97605
63.1411 40.8743 3.97631
63.4424 46.5929 3.97473
62.1353 44.0977 3.97569
70.0268 35.3976 0.0320697
69.4179 31.1629 0.0332107
67.3932 33.6237 0.0235552
66.4905 29.6878 0.0236057
62.3327 12.6605 0.0337756
62.15 15.8241 0.0474489
61.5428 18.8169 0.0396638
65.2415 25.7893 0.0262828
63.6568 28.383 0.0245351
62.3918 24.8109 0.0257207
60.7879 21.5382 0.0295446
59.8348 23.9839 0.0259306
59.2295 12.8329 0.0415623
56.3667 13.2144 0.0395007
55.8662 10.2887 0.0303041
67.6132 35.5663 2
66.99 31.6736 2
65.2594 33.9746 2
64.1795 30.2941 2
60.7452 14.2678 2
60.371 17.2661 2
59.7848 20.0342 2
63.0574 26.5703 2
61.5978 28.9528 2
59.0842 22.5302 2
60.4183 25.5742 2
58.2544 24.6394 2
57.825 14.4341 2
55.2004 14.7888 2
54.0408 9.15381 2
54.7571 12.1156 2
65.4436 35.6934 3.97632
64.7184 32.2251 3.97567
63.7257 34.3053 3.97609
61.9238 30.7728 3.97536
60.9992 27.2742 3.97459
60.0577 29.35 3.97543
59.1461 15.7984 3.95461
58.5531 26.0886 3.97474
58.7145 18.5786 3.96026
58.1653 21.1405 3.96724
57.5941 23.4219 3.97258
57.1723 25.0151 3.97476
52.1043 8.18781 3.9664
53.0528 11.0741 3.96768
56.5002 15.9214 3.95622
53.7516 13.8131 3.95655
54.1909 16.1975 3.95578
55.0649 67.9297 0.019299
65.0154 49.3142 0.0259504
55.7835 64.8449 0.0327975
59.2078 62.3045 0.0299388
56.3007 61.9987 0.0201483
63.4028 53.1784 0.031193
61.925 50.4712 0.026522
59.1894 59.4405 0.0459239
58.87 56.8003 0.0401277
60.6512 54.1223 0.0277589
58.7551 54.9505 0.0290137
53.0424 68.9918 2
53.9554 65.9716 2
57.8186 60.7943 2
54.6453 63.0874 2
55.1468 60.5054 2
62.6653 48.5015 2
61.264 52.3856 2
59.5625 49.7619 2
57.7318 58.0827 2
58.786 53.6998 2
57.5441 55.5359 2
52.0583 66.9752 3.9726
52.9255 64.131 3.96752
56.4799 59.3385 3.95291
53.6092 61.4571 3.96509
[...]
POINT_DATA 3012
SCALARS rho_c_phif_kappa float 4
LOOKUP_TABLE default
1000 0 1.0026 0.275695
1000 0 1.00206 0.276014
1000 0 1.0026 0.27604
1000 0 1.00259 0.27635
1000 0 1.00259 0.2759
1000 0 1.0026 0.275553
1012.46 1.35999e-08 1.00309 0.273041
1000 0 1.00206 0.275985
1000 0 1.00206 0.277154
1000 0 1.00206 0.276645
1000 0 1.0026 0.275421
1012.4 1.33095e-08 1.00335 0.272375
1000 0 1.00258 0.277059
1000 0 1.00258 0.278013
1000 0 1.0026 0.276379
1000 0 1.00259 0.277061
1000 0 1.0026 0.275808
1000 0 1.00259 0.276375
1012.27 1.36499e-08 1.00309 0.272857
1000 0 1.00205 0.27704
1000 0 1.00259 0.276495
1000 0 1.00259 0.276137
1012.43 1.37859e-08 1.00308 0.27522
1012.44 1.36733e-08 1.00309 0.273865
1000 0 1.0026 0.275494
1012.49 1.35311e-08 1.0031 0.272111
1014.09 1.60813e-08 1.0036 0.265493
1000 0 1.00206 0.275974
1000 0 1.00233 0.276635
1000 0 1.00233 0.27618
1000 0 1.00206 0.27601
1012.32 1.33685e-08 1.00335 0.272422
1000 0 1.00259 0.276304
1000 0 1.00259 0.275729
1012.47 1.37019e-08 1.00308 0.273166
1000 0 1.00206 0.276886
1012.39 1.34207e-08 1.00308 0.272427
1012.45 1.32624e-08 1.00336 0.27248
1014.08 1.59873e-08 1.00362 0.262674
1000 0 1.00207 0.277338
1000 0 1.00206 0.277066
1000 0 1.00232 0.277461
1000 0 1.00206 0.277135
1000 0 1.00259 0.27819
1012.39 1.38248e-08 1.00333 0.275513
1000 0 1.00206 0.277802
1012.47 1.38598e-08 1.00307 0.274796
1000 0 1.00258 0.277789
1000 0 1.00259 0.276851
1000 0 1.0026 0.276055
1012.46 1.35999e-08 1.00309 0.272711
1000 0 1.00232 0.277447
1000 0 1.00259 0.277267
1000 0 1.0026 0.275685
1000 0 1.00259 0.276744
1012.15 1.38301e-08 1.00308 0.274861
1012.36 1.3584e-08 1.0031 0.271908
1012.21 1.37195e-08 1.00309 0.273604
1014.1 1.60756e-08 1.0036 0.265381
1000 0 1.00206 0.277126
1000 0 1.00259 0.276615
1012.37 1.37916e-08 1.00306 0.275974
1012.42 1.38104e-08 1.00308 0.275609
1012.44 1.37392e-08 1.00308 0.274612
1014.06 1.61099e-08 1.00359 0.269488
1014.08 1.60935e-08 1.00359 0.266308
1000 0 1.00261 0.275588
1012.54 1.34765e-08 1.0031 0.271341
1014.1 1.6068e-08 1.00361 0.263899
1014.05 1.61074e-08 1.00359 0.257434
1000 0 1.00206 0.276288
1000 0 1.00206 0.276243
1000 0 1.00206 0.275989
1012.4 1.33095e-08 1.00335 0.272467
1000 0 1.00206 0.276515
1000 0 1.00206 0.276122
1012.24 1.3748e-08 1.00334 0.2734
1000 0 1.00233 0.276393
1012.26 1.34747e-08 1.00335 0.272589
1012.43 1.33311e-08 1.00323 0.272456
1014.09 1.59887e-08 1.00362 0.26268
1000 0 1.00206 0.276808
1012.8 1.3335e-08 1.0034 0.274036
1012.49 1.37985e-08 1.00334 0.273961
1012.43 1.35658e-08 1.00335 0.272922
1014.08 1.61025e-08 1.0036 0.266065
1012.54 1.32535e-08 1.0031 0.272643
1014.08 1.60262e-08 1.00361 0.263457
1014.11 1.59714e-08 1.00362 0.26318
1014.07 1.61329e-08 1.0036 0.256124
1000 0 1.00207 0.277798
1000 0 1.00207 0.277596
1000 0 1.00206 0.276819
1000 0 1.00206 0.27704
1000 0 1.00205 0.277113
1000 0 1.00232 0.277584
1012.03 1.38658e-08 1.0032 0.275443
1000 0 1.00232 0.27724
1012.21 1.39035e-08 1.00321 0.27504
1000 0 1.00205 0.277131
1012.37 1.3797e-08 1.00332 0.275756
1012.45 1.38476e-08 1.00307 0.27508
1014.04 1.61036e-08 1.0036 0.271742
1012.48 1.38495e-08 1.00307 0.274458
1014.07 1.61253e-08 1.0036 0.270716
1000 0 1.00258 0.277014
1000 0 1.00258 0.27807
1000 0 1.00261 0.275866
1000 0 1.00259 0.277352
1012.43 1.37859e-08 1.00308 0.274512
1012.44 1.36733e-08 1.00308 0.273356
1012.49 1.35311e-08 1.00309 0.271545
1014.09 1.60813e-08 1.0036 0.265223
1000 0 1.00205 0.277094
1000 0 1.00259 0.277381
1012.02 1.38335e-08 1.0032 0.275522
1012.15 1.38548e-08 1.00308 0.275261
1000 0 1.00234 0.275579
1012.47 1.35381e-08 1.0031 0.271572
1012.18 1.37838e-08 1.00308 0.274283
1014.09 1.61022e-08 1.00359 0.269392
1014.11 1.60666e-08 1.00361 0.263388
1014.1 1.60867e-08 1.00359 0.266501
1014.05 1.6109e-08 1.00359 0.257458
1012.34 1.37817e-08 1.00332 0.275774
1012.42 1.38101e-08 1.00308 0.275779
1014.04 1.60936e-08 1.00358 0.271538
1014.06 1.6111e-08 1.00358 0.270321
1014.07 1.61042e-08 1.00359 0.267875
1014.03 1.60914e-08 1.00359 0.264163
1000 0 1.00207 0.276358
1014.04 1.60986e-08 1.00359 0.258959
1012.6 1.34441e-08 1.00338 0.271848
1014.11 1.60555e-08 1.00362 0.261361
1014.06 1.61201e-08 1.0036 0.256076
1013.97 1.60196e-08 1.00358 0.25428
1012.74 1.34268e-08 1.0034 0.272727
1014.28 1.61135e-08 1.00364 0.26927
1000 0 1.00206 0.276489
1000 0 1.00206 0.276111
1012.47 1.37019e-08 1.00334 0.273403
1000 0 1.00206 0.276673
1012.45 1.32624e-08 1.00336 0.272472
1012.39 1.34207e-08 1.00335 0.272618
1014.08 1.59873e-08 1.00361 0.26272
1000 0 1.00206 0.277029
1012.88 1.33898e-08 1.0034 0.274299
1012.24 1.38423e-08 1.00321 0.273857
1012.24 1.36153e-08 1.00321 0.272822
1014.1 1.60959e-08 1.0036 0.266079
1012.54 1.33276e-08 1.00337 0.272637
1014.09 1.60253e-08 1.00361 0.263565
1014.12 1.59712e-08 1.00362 0.263449
1014.08 1.61354e-08 1.0036 0.255755
1012.63 1.32894e-08 1.00339 0.273168
1012.91 1.33836e-08 1.00342 0.274966
1014.3 1.60909e-08 1.00364 0.271612
1014.08 1.61228e-08 1.0036 0.267612
1014.08 1.60686e-08 1.00361 0.264752
1014.03 1.60841e-08 1.00359 0.258776
1014.17 1.60058e-08 1.00363 0.265412
1014.05 1.61131e-08 1.0036 0.255265
1014.08 1.61425e-08 1.00361 0.255622
1014 1.60616e-08 1.00359 0.25364
1000 0 1.00207 0.278086
1000 0 1.00207 0.27794
1000 0 1.00207 0.277763
1012.86 1.34501e-08 1.00341 0.273858
1000 0 1.00207 0.276843
1000 0 1.00206 0.276674
1000 0 1.00206 0.276949
1012.47 1.38598e-08 1.00334 0.275316
1012.39 1.38248e-08 1.00333 0.275761
1000 0 1.00206 0.277131
1000 0 1.00205 0.277138
1012.25 1.38356e-08 1.00332 0.275777
1012.34 1.3888e-08 1.0032 0.275331
1014.08 1.60965e-08 1.0036 0.271751
1012.2 1.38924e-08 1.00334 0.274756
1014.1 1.61167e-08 1.0036 0.270644
1012.32 1.3775e-08 1.00332 0.27578
1014.04 1.60918e-08 1.0036 0.272088
1014.06 1.61136e-08 1.0036 0.271333
1014.04 1.60901e-08 1.00359 0.268617
1014.07 1.61292e-08 1.0036 0.269309
1014.03 1.60885e-08 1.00359 0.265862
1000 0 1.00205 0.277116
1000 0 1.00259 0.278204
1012.37 1.37916e-08 1.00334 0.275491
1012.42 1.38104e-08 1.00308 0.274925
1000 0 1.00207 0.276324
1012.54 1.34765e-08 1.00309 0.271886
1012.44 1.37392e-08 1.00308 0.273969
1014.06 1.61099e-08 1.00359 0.269276
1014.08 1.60935e-08 1.0036 0.266679
1014.1 1.6068e-08 1.00361 0.263079
1014.05 1.61074e-08 1.00359 0.257491
1012.2 1.38204e-08 1.00332 0.275766
1012.31 1.38512e-08 1.00308 0.275468
1014.07 1.60864e-08 1.00359 0.271398
1014.09 1.61027e-08 1.00359 0.270449
1000 0 1.00207 0.276198
1012.56 1.35151e-08 1.00324 0.272021
1014.13 1.60491e-08 1.00362 0.261645
1014.09 1.60967e-08 1.00359 0.267791
1014.03 1.60924e-08 1.00359 0.263826
1014.06 1.61203e-08 1.0036 0.256132
1014.04 1.60998e-08 1.00359 0.259239
1013.97 1.60193e-08 1.00358 0.254329
1012.79 1.34851e-08 1.0034 0.27268
1014.27 1.61008e-08 1.00364 0.269227
1014.03 1.60877e-08 1.00359 0.272095
1014.06 1.61049e-08 1.00358 0.270937
1014.04 1.60942e-08 1.00359 0.268404
1014.03 1.60902e-08 1.00359 0.265284
1014.03 1.60939e-08 1.00359 0.261355
1013.96 1.60051e-08 1.00358 0.260848
1012.67 1.34234e-08 1.00339 0.272029
1013.96 1.60109e-08 1.00358 0.255897
1014.15 1.60464e-08 1.00362 0.262776
1014.06 1.61261e-08 1.0036 0.254117
1013.98 1.60333e-08 1.00359 0.253159
1013.95 1.59973e-08 1.00358 0.253046
1014.24 1.6086e-08 1.00364 0.26743
1014.33 1.61552e-08 1.00365 0.270913
1014.16 1.62475e-08 1.00362 0.265149
1012.49 1.37985e-08 1.00334 0.274041
1000 0 1.00206 0.277345
1012.8 1.3335e-08 1.0034 0.27473
1012.43 1.35658e-08 1.00334 0.272924
1014.08 1.61025e-08 1.0036 0.266094
1012.54 1.32535e-08 1.00337 0.272557
1014.11 1.59714e-08 1.00362 0.26366
1014.08 1.60262e-08 1.00361 0.263721
1014.07 1.61329e-08 1.0036 0.255359
1012.71 1.33457e-08 1.00339 0.273327
1013 1.34318e-08 1.00342 0.275331
1014.29 1.60801e-08 1.00364 0.271726
1014.1 1.61159e-08 1.0036 0.26762
1014.1 1.6064e-08 1.00361 0.264824
1014.03 1.60859e-08 1.00359 0.258753
1014.18 1.60064e-08 1.00363 0.265926
1014.05 1.61142e-08 1.0036 0.25548
1014.08 1.61422e-08 1.00361 0.255551
1014.01 1.6062e-08 1.00359 0.253191
1013.06 1.34377e-08 1.00343 0.275866
1014.24 1.60538e-08 1.00364 0.269285
1014.34 1.61199e-08 1.00365 0.272879
1014.19 1.62767e-08 1.00363 0.268201
1014.02 1.60737e-08 1.00359 0.260781
1014.04 1.60977e-08 1.00359 0.256855
1013.96 1.60262e-08 1.00358 0.255274
1014.1 1.617e-08 1.00361 0.25815
1013.97 1.60289e-08 1.00359 0.251159
1014 1.60516e-08 1.0036 0.251935
1013.99 1.60509e-08 1.00359 0.252721
1014.39 1.61842e-08 1.00365 0.276479
1013.26 1.3533e-08 1.00345 0.276436
1000 0 1.00207 0.27822
1000 0 1.00207 0.278181
1000 0 1.00207 0.278082
1012.97 1.35034e-08 1.00343 0.274685
1000 0 1.00207 0.277338
1012.95 1.35087e-08 1.00341 0.273483
1000 0 1.00207 0.276652
1012.48 1.38495e-08 1.00334 0.274746
1012.45 1.38476e-08 1.00333 0.275622
1014.07 1.61253e-08 1.0036 0.270567
1014.04 1.61036e-08 1.0036 0.271725
1012.37 1.3797e-08 1.00332 0.2758
1000 0 1.00205 0.277129
1011.91 1.38166e-08 1.00332 0.275775
1014.04 1.60853e-08 1.0036 0.272085
1014.07 1.61067e-08 1.0036 0.27129
1014.03 1.6091e-08 1.00359 0.268596
1014.1 1.61223e-08 1.0036 0.269322
1014.03 1.60895e-08 1.00359 0.265928
1014.02 1.60863e-08 1.0036 0.272205
1014.03 1.60861e-08 1.00359 0.269128
1014.03 1.60911e-08 1.00359 0.267706
1013.97 1.60358e-08 1.00358 0.266711
1014.03 1.60823e-08 1.00359 0.263428
1013.96 1.60192e-08 1.00358 0.263733
1012.34 1.37817e-08 1.00332 0.275746
1012.42 1.38101e-08 1.00308 0.275105
1014.04 1.60936e-08 1.00359 0.271282
1014.06 1.6111e-08 1.00359 0.270523
1000 0 1.00207 0.276015
1012.6 1.34441e-08 1.0031 0.271802
1014.11 1.60555e-08 1.00361 0.26197
1014.07 1.61042e-08 1.00359 0.267687
1014.03 1.60914e-08 1.00359 0.263494
1014.04 1.60986e-08 1.0036 0.259521
1014.06 1.61201e-08 1.0036 0.256147
1013.97 1.60196e-08 1.00358 0.254358
1012.74 1.34268e-08 1.0034 0.272584
1014.28 1.61135e-08 1.00364 0.268797
1014.04 1.60813e-08 1.00359 0.271916
1014.06 1.60979e-08 1.00358 0.270977
1014.03 1.60951e-08 1.00359 0.268299
1014.03 1.60912e-08 1.00359 0.265609
1012.65 1.34902e-08 1.00339 0.272124
1014.16 1.60384e-08 1.00363 0.262521
1014.06 1.613e-08 1.0036 0.254166
1014.03 1.60951e-08 1.00359 0.261526
1013.96 1.60048e-08 1.00358 0.260526
1013.98 1.60335e-08 1.00359 0.252984
1013.96 1.60107e-08 1.00358 0.255931
1013.95 1.59971e-08 1.00358 0.252759
1014.24 1.60837e-08 1.00364 0.267492
1014.16 1.62477e-08 1.00362 0.265011
1014.32 1.61567e-08 1.00365 0.270832
1014.03 1.60901e-08 1.00359 0.269271
1014.03 1.60903e-08 1.00359 0.267003
1013.97 1.60261e-08 1.00358 0.266726
1013.96 1.60066e-08 1.00358 0.262547
1013.96 1.60051e-08 1.00358 0.25758
1013.94 1.5981e-08 1.00357 0.258132
1014.2 1.60649e-08 1.00363 0.265516
1013.94 1.59865e-08 1.00358 0.25363
1014.07 1.61411e-08 1.00361 0.254307
1013.98 1.60373e-08 1.00359 0.249461
1013.96 1.60152e-08 1.00358 0.251316
1013.92 1.59404e-08 1.00358 0.250779
1014.36 1.61732e-08 1.00365 0.272924
1014.13 1.62113e-08 1.00362 0.261379
1014.18 1.62862e-08 1.00363 0.269155
1014.09 1.61618e-08 1.00362 0.260863
1014.08 1.61228e-08 1.0036 0.267632
1012.91 1.33836e-08 1.00342 0.275544
1012.63 1.32894e-08 1.00339 0.273504
1014.3 1.60909e-08 1.00364 0.271802
1014.08 1.60686e-08 1.00361 0.26488
1014.03 1.60841e-08 1.00359 0.258731
1014.17 1.60058e-08 1.00363 0.266542
1014.08 1.61425e-08 1.00361 0.255581
1014.05 1.61131e-08 1.0036 0.25568
1014 1.60616e-08 1.00359 0.25282
1013.1 1.34782e-08 1.00343 0.276066
1014.24 1.60521e-08 1.00364 0.269588
1014.32 1.61164e-08 1.00365 0.272964
1014.19 1.62794e-08 1.00363 0.268383
1014.02 1.60741e-08 1.00359 0.260758
1014.04 1.60994e-08 1.00359 0.256845
1013.96 1.60251e-08 1.00358 0.255274
1014.1 1.61721e-08 1.00361 0.258096
1013.97 1.60294e-08 1.00359 0.251457
1014 1.6052e-08 1.0036 0.251671
1013.99 1.60519e-08 1.00359 0.253488
1013.15 1.34865e-08 1.00344 0.276263
1014.35 1.61324e-08 1.00365 0.274297
1014.15 1.62253e-08 1.00362 0.263016
1014.19 1.62924e-08 1.00363 0.270947
1014.12 1.61966e-08 1.00362 0.264054
1013.96 1.60528e-08 1.00358 0.257272
1013.96 1.60136e-08 1.00358 0.252627
1013.93 1.59841e-08 1.00358 0.251888
1014.01 1.60628e-08 1.0036 0.250802
1013.96 1.60438e-08 1.00358 0.248572
1013.96 1.60426e-08 1.00359 0.249359
1014.38 1.6162e-08 1.00365 0.276136
1014.2 1.63344e-08 1.00363 0.274961
1014.4 1.62089e-08 1.00365 0.27692
1014.39 1.61841e-08 1.00365 0.276585
1013.35 1.3588e-08 1.00317 0.276882
1013.28 1.35635e-08 1.00331 0.276834
1000 0 1.00265 0.277548
1000 0 1.00207 0.278241
1000 0 1.00207 0.278209
1013.16 1.35816e-08 1.00344 0.275598
1000 0 1.00207 0.277909
1013.08 1.35519e-08 1.00343 0.274514
1000 0 1.00207 0.277137
1012.86 1.34501e-08 1.00341 0.273313
1000 0 1.00207 0.27648
1014.07 1.61292e-08 1.0036 0.269328
1014.06 1.61136e-08 1.0036 0.271286
1014.03 1.60885e-08 1.00359 0.26589
1014.04 1.60901e-08 1.00359 0.268582
1014.04 1.60918e-08 1.0036 0.272076
1012.32 1.3775e-08 1.00332 0.275759
1014.06 1.60789e-08 1.00359 0.272204
1014.03 1.60869e-08 1.00359 0.269128
1014.03 1.6092e-08 1.00359 0.267575
1013.97 1.60356e-08 1.00358 0.266658
1014.02 1.60832e-08 1.00359 0.263383
1013.96 1.60191e-08 1.00358 0.26371
1014.03 1.60852e-08 1.00359 0.269275
1013.98 1.60519e-08 1.00358 0.267485
1013.97 1.60262e-08 1.00358 0.265908
1013.95 1.60142e-08 1.00358 0.26594
1013.96 1.60162e-08 1.00358 0.259869
1013.94 1.59838e-08 1.00357 0.261305
1014.03 1.60877e-08 1.00359 0.271749
1014.06 1.61049e-08 1.00358 0.27111
1014.04 1.60942e-08 1.00359 0.26811
1014.03 1.60902e-08 1.00359 0.265968
1012.67 1.34234e-08 1.00339 0.272227
1014.15 1.60464e-08 1.00363 0.262096
1014.06 1.61261e-08 1.0036 0.254188
1014.03 1.60939e-08 1.00359 0.261705
1013.96 1.60051e-08 1.00358 0.260202
1013.96 1.60109e-08 1.00358 0.255967
1013.98 1.60333e-08 1.00359 0.25286
1013.95 1.59973e-08 1.00358 0.252552
1014.24 1.6086e-08 1.00364 0.267647
1014.16 1.62475e-08 1.00362 0.265199
1014.33 1.61552e-08 1.00365 0.271011
1014.03 1.60908e-08 1.00359 0.269126
1014.03 1.60913e-08 1.00359 0.267133
1013.97 1.60258e-08 1.00358 0.266513
1013.96 1.60064e-08 1.00358 0.262836
1014.21 1.60628e-08 1.00363 0.265045
1014.07 1.61424e-08 1.00361 0.25406
1013.99 1.60377e-08 1.00359 0.249648
1013.96 1.60048e-08 1.00358 0.25792
1013.94 1.59811e-08 1.00357 0.257854
1013.96 1.60151e-08 1.00358 0.251125
1013.94 1.59867e-08 1.00358 0.253633
1013.92 1.594e-08 1.00358 0.251056
1014.13 1.62144e-08 1.00362 0.261059
1014.08 1.6162e-08 1.00361 0.260846
1014.34 1.61697e-08 1.00365 0.272851
1014.19 1.62864e-08 1.00363 0.269891
1013.98 1.60494e-08 1.00358 0.267414
1013.96 1.60164e-08 1.00358 0.265041
1013.95 1.59871e-08 1.00358 0.265872
1013.94 1.59941e-08 1.00357 0.259937
1013.94 1.59935e-08 1.00357 0.255421
1013.93 1.59614e-08 1.00357 0.256146
1014.1 1.61725e-08 1.00361 0.256945
1013.92 1.59373e-08 1.00357 0.250823
1013.98 1.60373e-08 1.00359 0.247735
1013.96 1.60302e-08 1.00359 0.246629
1013.93 1.59349e-08 1.00358 0.249918
1013.91 1.58761e-08 1.00357 0.24934
1014.37 1.61906e-08 1.00365 0.273737
1014.18 1.62907e-08 1.00363 0.270627
1014.04 1.61121e-08 1.00361 0.256033
1014.12 1.62083e-08 1.00362 0.266045
1014.06 1.61223e-08 1.00361 0.256622
1013.06 1.34377e-08 1.00343 0.276343
1014.02 1.60737e-08 1.00359 0.260746
1014.34 1.61199e-08 1.00365 0.272963
1014.24 1.60538e-08 1.00364 0.269962
1014.19 1.62767e-08 1.00363 0.268713
1014.04 1.60977e-08 1.00359 0.256827
1013.96 1.60262e-08 1.00358 0.255271
1014.1 1.617e-08 1.00361 0.257971
1014 1.60516e-08 1.0036 0.251091
1013.97 1.60289e-08 1.00359 0.251802
1013.99 1.60509e-08 1.00359 0.253896
1013.19 1.35174e-08 1.00344 0.276392
1014.35 1.61324e-08 1.00365 0.274675
1014.15 1.62258e-08 1.00362 0.263701
1014.2 1.62939e-08 1.00363 0.271258
1014.12 1.61973e-08 1.00362 0.263215
1013.96 1.60571e-08 1.00358 0.257225
1013.96 1.60131e-08 1.00358 0.252645
1013.93 1.59884e-08 1.00358 0.251858
1014.01 1.60651e-08 1.0036 0.250877
1013.96 1.60431e-08 1.00358 0.248957
1013.96 1.60429e-08 1.00359 0.249174
1014.37 1.61474e-08 1.00365 0.275471
1014.2 1.63156e-08 1.00363 0.272008
1014.06 1.61284e-08 1.00361 0.256348
1014.14 1.62244e-08 1.00363 0.267794
1014.08 1.61616e-08 1.00362 0.258954
1013.91 1.58221e-08 1.00357 0.254894
1013.95 1.60699e-08 1.00358 0.248958
1013.85 1.5423e-08 1.00357 0.248292
1013.97 1.60601e-08 1.0036 0.245823
1013.93 1.59604e-08 1.00358 0.246074
1014.37 1.61631e-08 1.00365 0.27619
1014.2 1.63279e-08 1.00363 0.274738
1014.21 1.63345e-08 1.00363 0.275009
1014.18 1.62839e-08 1.00364 0.273386
1014.21 1.63422e-08 1.00364 0.275167
1014.41 1.62335e-08 1.00365 0.277087
1014.4 1.62058e-08 1.00365 0.276865
1013.45 1.36534e-08 1.00318 0.276979
1014.39 1.61842e-08 1.00365 0.276567
1013.37 1.36054e-08 1.00317 0.277155
1000 0 1.00266 0.277515
1013.26 1.3533e-08 1.00316 0.277077
1000 0 1.00236 0.277641
1000 0 1.00207 0.278313
1013.28 1.36581e-08 1.00345 0.276249
1013.23 1.36051e-08 1.00344 0.275329
1000 0 1.00207 0.278116
1000 0 1.00207 0.277623
1012.97 1.35034e-08 1.00343 0.27416
1000 0 1.00207 0.276935
1014.03 1.60823e-08 1.00359 0.263331
1014.03 1.60911e-08 1.00359 0.26755
1013.96 1.60192e-08 1.00358 0.263714
1013.97 1.60358e-08 1.00358 0.266605
1014.03 1.60861e-08 1.00359 0.269128
1014.02 1.60863e-08 1.0036 0.272197
1014.03 1.60864e-08 1.00359 0.269277
1013.98 1.60515e-08 1.00358 0.267521
1013.97 1.60255e-08 1.00358 0.265888
1013.95 1.60136e-08 1.00358 0.265799
1013.96 1.60156e-08 1.00358 0.259841
1013.95 1.59833e-08 1.00357 0.261457
1013.98 1.6057e-08 1.00358 0.267729
1013.96 1.60573e-08 1.00358 0.266774
1013.94 1.60169e-08 1.00357 0.264389
1013.88 1.5665e-08 1.00357 0.265097
1013.94 1.59834e-08 1.00357 0.258409
1013.93 1.58965e-08 1.00357 0.260588
1014.03 1.60901e-08 1.00359 0.268994
1014.03 1.60903e-08 1.00359 0.267115
1013.97 1.60261e-08 1.00358 0.266345
1013.96 1.60066e-08 1.00358 0.263131
1014.2 1.60649e-08 1.00363 0.264664
1014.07 1.61411e-08 1.00361 0.253923
1013.98 1.60373e-08 1.00359 0.249815
1013.96 1.60051e-08 1.00358 0.258254
1013.94 1.5981e-08 1.00357 0.257593
1013.94 1.59865e-08 1.00358 0.25364
1013.96 1.60152e-08 1.00358 0.250737
1013.92 1.59404e-08 1.00358 0.251068
1014.13 1.62113e-08 1.00362 0.260506
1014.09 1.61618e-08 1.00361 0.260723
1014.36 1.61732e-08 1.00365 0.272707
1014.18 1.62862e-08 1.00363 0.269765
1013.97 1.60489e-08 1.00358 0.267417
1013.96 1.60159e-08 1.00358 0.26496
1013.95 1.59869e-08 1.00358 0.265794
1013.94 1.5994e-08 1.00357 0.260104
1014.1 1.61737e-08 1.00361 0.257117
1013.98 1.60367e-08 1.00359 0.248032
1013.96 1.60298e-08 1.00359 0.246185
1013.94 1.59935e-08 1.00357 0.255621
1013.93 1.59611e-08 1.00357 0.256093
1013.93 1.59339e-08 1.00358 0.249533
1013.92 1.59375e-08 1.00357 0.250775
1013.91 1.58754e-08 1.00357 0.249475
1014.05 1.61158e-08 1.00361 0.255696
1014.06 1.61226e-08 1.00361 0.256073
1014.13 1.62119e-08 1.00362 0.266222
1014.37 1.61959e-08 1.00365 0.273927
1014.18 1.62944e-08 1.00363 0.270383
1013.95 1.60336e-08 1.00358 0.266478
1013.95 1.59811e-08 1.00357 0.264002
1013.92 1.59015e-08 1.00357 0.256913
1013.9 1.58445e-08 1.00357 0.253311
1014.01 1.60634e-08 1.0036 0.250895
1013.93 1.59183e-08 1.00357 0.246342
1013.96 1.60355e-08 1.00359 0.243126
1013.91 1.59094e-08 1.00358 0.243047
1013.88 1.57344e-08 1.00357 0.248461
1014.4 1.62302e-08 1.00365 0.275039
1014.18 1.62967e-08 1.00364 0.270663
1014.14 1.6239e-08 1.00363 0.268995
1014.02 1.60892e-08 1.00361 0.251706
1014.1 1.61731e-08 1.00362 0.260625
1014.04 1.6081e-08 1.00361 0.252857
1013.15 1.34865e-08 1.00344 0.276479
1014.35 1.61324e-08 1.00365 0.274987
1013.96 1.60528e-08 1.00358 0.257174
1014.19 1.62924e-08 1.00363 0.271862
1014.15 1.62253e-08 1.00362 0.264263
1014.12 1.61966e-08 1.00362 0.262374
1013.96 1.60136e-08 1.00358 0.25267
1013.93 1.59841e-08 1.00358 0.251832
1014.01 1.60628e-08 1.0036 0.251069
1013.96 1.60426e-08 1.00359 0.249325
1013.96 1.60438e-08 1.00358 0.249311
1014.36 1.61481e-08 1.00365 0.275604
1014.21 1.6317e-08 1.00363 0.272941
1014.06 1.61294e-08 1.00361 0.256271
1014.14 1.6226e-08 1.00363 0.267898
1014.09 1.61678e-08 1.00362 0.258702
1013.91 1.58001e-08 1.00357 0.254884
1013.95 1.60735e-08 1.00358 0.248978
1013.85 1.54021e-08 1.00357 0.248248
1013.98 1.60616e-08 1.00359 0.245586
1013.93 1.5963e-08 1.00358 0.245399