# vtk DataFile Version 2.0
Wound Healing Simulation
ASCII
DATASET UNSTRUCTURED_GRID
POINTS 3012 float
69.9759 18.75 4
67.2507 60.3285 4
69.976 18.75 2
73.0099 25.446 4
71.1327 20.9142 4
68.6801 16.6661 4
67.8244 19.9262 3.97989
67.2507 60.3286 2
71.1327 54.0858 4
68.6801 58.3339 4
65.6939 62.2254 4
65.3109 59.0006 3.97892
74.6784 42.3946 4
73.7221 47.2057 4
69.9759 18.75 0
73.0099 25.446 2
68.6801 16.6661 2
71.1327 20.9142 2
67.825 19.9297 2
74.6792 32.6053 4
73.7222 27.7943 4
72.1454 23.1494 4
70.6132 26.221 3.97946
68.8846 21.958 3.98029
67.2507 14.6715 4
66.6358 17.9725 3.97894
65.7934 21.0273 3.9691
67.2507 60.3285 0
71.1327 54.0858 2
68.6801 58.3339 2
65.694 62.2255 2
65.3123 58.9964 2
72.1454 51.8506 4
69.9759 56.25 4
68.8353 53.113 3.97947
64.0165 64.0165 4
66.6095 57.1333 3.9794
63.884 60.7648 3.97916
63.4968 57.7676 3.97009
60.3285 67.2507 4
74.6792 42.3947 2
73.7222 47.2057 2
74.9194 39.9526 4
74.2788 44.8158 4
72.1676 42.0856 3.97935
73.0099 49.554 4
71.2484 46.598 3.97879
73.0099 25.446 0
71.1327 20.9142 0
68.6801 16.6661 0
67.8244 19.9262 0.0201102
74.6792 32.6053 2
73.7222 27.7943 2
67.2508 14.6715 2
72.1455 23.1494 2
70.6131 26.2216 2
66.6368 17.977 2
68.8849 21.9603 2
65.7927 21.0283 2
74.9197 35.0474 4
74.2794 30.1841 4
72.1842 32.9435 3.9796
71.2774 28.4315 3.97909
69.8145 24.0595 3.98006
68.3437 26.9525 3.96843
66.759 22.9347 3.96873
65.694 12.7746 4
65.322 16.1046 3.97829
64.7097 19.1983 3.96943
63.87 22.0431 3.96584
71.1327 54.0858 0
65.6939 62.2254 0
68.6801 58.3339 0
65.3109 59.0006 0.0210789
72.1455 51.8506 2
69.9759 56.25 2
68.8354 53.111 2
64.0165 64.0165 2
66.6104 57.1293 2
63.8858 60.761 2
63.4961 57.7673 2
62.2254 65.694 4
58.8936 65.4137 3.9888
69.7678 50.9889 3.97921
67.7826 55.1671 3.97954
66.6459 52.2078 3.96809
62.3345 62.4265 3.98241
64.657 56.029 3.96935
62.1986 59.397 3.96905
61.8152 56.673 3.96575
58.3339 68.6801 4
60.3285 67.2508 2
73.7221 47.2057 0
74.6784 42.3946 0
74.9197 39.9526 2
74.2794 44.8159 2
72.167 42.0855 2
73.0099 49.554 2
71.2482 46.5977 2
75 37.5 4
72.4049 39.8023 3.98003
71.7818 44.3528 3.9793
69.8015 41.7897 3.96884
70.5741 48.8135 3.97885
68.9091 46.0142 3.96828
74.6792 32.6053 0
73.7222 27.7943 0
67.2507 14.6715 0
72.1454 23.1494 0
70.6132 26.221 0.0205352
68.8846 21.958 0.0197054
66.6358 17.9725 0.0210586
65.7934 21.0273 0.0308995
74.9197 35.0474 2
74.2794 30.1841 2
72.1836 32.9439 2
71.2772 28.432 2
65.694 12.7745 2
65.3236 16.1095 2
69.8146 24.0608 2
68.3435 26.9532 2
64.7089 19.1992 2
66.7586 22.9356 2
63.8698 22.0436 2
72.4127 35.2243 3.98009
71.8032 30.6764 3.97958
69.8375 33.2691 3.96897
68.9632 29.0391 3.9685
67.608 24.9132 3.9685
66.1678 27.6413 3.96698
64.0165 10.9835 4
64.7345 23.8375 3.96628
63.8882 14.329 3.97943
63.5087 17.4531 3.96988
62.8938 20.3293 3.96514
62.032 22.9652 3.96701
60.6825 11.0995 3.98375
57.6107 11.4541 3.97531
72.1454 51.8506 0
69.9759 56.25 0
68.8353 53.113 0.020531
64.0165 64.0165 0
63.884 60.7648 0.0208417
66.6095 57.1333 0.020604
63.4968 57.7676 0.0299062
62.2255 65.694 2
58.8952 65.4127 2
69.7678 50.9878 2
67.7831 55.1639 2
66.6454 52.2069 2
62.3366 62.4234 2
64.6562 56.0284 2
62.1978 59.3975 2
61.8145 56.6728 2
60.6673 63.976 3.98533
57.0248 66.7346 3.99028
57.5561 63.6872 3.97799
67.504 50.1755 3.96786
65.6983 54.1715 3.96853
64.5113 51.377 3.96558
60.7697 60.9298 3.97208
62.8111 55.0612 3.96507
60.6487 58.1465 3.96474
60.3126 55.7703 3.96432
56.25 69.9759 4
58.3339 68.6801 2
60.3285 67.2507 0
58.9203 9.65715 3.98663
62.2254 9.30607 4
73.0099 49.554 0
74.2788 44.8158 0
71.2484 46.598 0.0212067
72.1676 42.0856 0.0206517
74.9194 39.9526 0
75 37.5 2
72.4048 39.8024 2
71.7817 44.3524 2
69.8009 41.7893 2
70.574 48.8131 2
68.9091 46.0136 2
72.4883 37.5122 3.97966
70.039 39.6576 3.96899
69.4276 43.9072 3.96865
67.5717 41.4949 3.96865
68.2626 48.1062 3.96796
66.6756 45.4336 3.96767
74.9197 35.0474 0
74.2794 30.1841 0
72.1842 32.9435 0.0203965
71.2774 28.4315 0.0209092
65.694 12.7746 0
65.322 16.1046 0.0217082
69.8145 24.0595 0.0199416
68.3437 26.9525 0.0315731
66.759 22.9347 0.0312722
64.7097 19.1983 0.0305714
63.87 22.0431 0.0341599
72.4127 35.2244 2
71.8032 30.677 2
69.8369 33.2695 2
68.9631 29.0397 2
64.0165 10.9835 2
63.8904 14.3334 2
63.5079 17.4538 2
67.6077 24.914 2
66.168 27.6417 2
62.8938 20.3297 2
64.7343 23.838 2
62.0315 22.9657 2
60.6852 11.1025 2
57.6123 11.4533 2
70.0557 35.3925 3.96911
69.4645 31.1503 3.96868
67.6332 33.5942 3.96828
66.745 29.6287 3.96735
65.4978 25.7065 3.96655
64.0557 28.2745 3.97051
62.3401 12.6567 3.98193
62.7852 24.6587 3.96836
62.1944 15.7948 3.97014
61.8035 18.6961 3.9654
61.1656 21.3648 3.9652
60.3134 23.7641 3.9695
59.2436 12.7898 3.97316
55.8729 10.2398 3.97784
56.4018 13.1365 3.97253
69.7678 50.9889 0.0207914
62.2254 65.694 0
58.8936 65.4137 0.0111988
67.7826 55.1671 0.0204622
66.6459 52.2078 0.0319124
62.3345 62.4265 0.0175918
62.1986 59.397 0.0309499
64.657 56.029 0.0306488
61.8152 56.673 0.0342526
60.6693 63.9742 2
57.0259 66.734 2
57.5564 63.6885 2
67.5037 50.1747 2
65.6975 54.1707 2
64.5113 51.3767 2
60.7692 60.9309 2
62.8107 55.0611 2
60.6485 58.1467 2
60.3129 55.7701 2
55.0707 67.9315 3.99146
59.2163 62.3581 3.97302
55.8035 64.9064 3.98197
56.3229 62.0747 3.9743
65.2983 49.3998 3.96613
63.6889 53.285 3.96519
62.3596 50.6292 3.9673
59.3257 59.5427 3.96669
61.0446 54.2919 3.96576
59.2697 56.9925 3.9633
59.2116 55.1613 3.96571
48.1012 68.5769 3.98684
50.9485 69.9312 3.99159
54.0858 71.1327 4
56.25 69.976 2
58.3339 68.6801 0
57.0577 8.33688 3.98757
60.3285 7.74928 4
58.9228 9.65896 2
62.2255 9.30602 2
70.5741 48.8135 0.0211465
71.7818 44.3528 0.0207049
68.9091 46.0142 0.0317157
69.8015 41.7897 0.0311646
72.4049 39.8023 0.0199684
75 37.5 0
72.4877 37.5123 2
70.0389 39.6575 2
69.4274 43.9068 2
67.5716 41.4946 2
68.2624 48.1055 2
66.675 45.4332 2
70.127 37.5219 3.96906
67.8126 39.5113 3.9688
67.1921 43.4654 3.96805
65.4581 41.2011 3.97341
66.0327 47.4102 3.967
64.5442 44.831 3.97122
72.4127 35.2243 0.0199149
71.8032 30.6764 0.02042
69.8375 33.2691 0.0310316
68.9632 29.0391 0.0314979
64.0165 10.9835 0
63.8882 14.329 0.0205736
63.5087 17.4531 0.0301219
67.608 24.9132 0.0315027
66.1678 27.6413 0.0330216
64.7345 23.8375 0.0337179
62.8938 20.3293 0.0348644
62.032 22.9652 0.0329938
60.6825 11.0995 0.0162507
57.6107 11.4541 0.0246903
70.0556 35.3927 2
69.4644 31.1508 2
67.6332 33.5944 2
66.745 29.6291 2
62.3426 12.6609 2
62.1937 15.7947 2
61.8027 18.6965 2
65.4978 25.707 2
64.0542 28.275 2
61.1647 21.3653 2
62.7845 24.6592 2
60.3131 23.765 2
59.2452 12.789 2
56.4027 13.134 2
55.8741 10.2391 2
67.852 35.5494 3.96872
67.2404 31.6271 3.96786
65.6107 33.9354 3.97312
64.5709 30.2082 3.97154
63.4571 26.4347 3.96946
62.1036 28.8079 3.97483
60.772 14.2336 3.97227
60.9191 25.3731 3.97173
60.6013 17.1441 3.96562
60.1806 19.841 3.96298
59.5556 22.2973 3.96622
58.8249 24.369 3.97229
54.0365 9.14075 3.98028
57.905 14.3523 3.9721
54.7837 12.0258 3.974
55.3052 14.6775 3.97053
67.504 50.1755 0.0321439
57.0248 66.7346 0.00972468
60.6673 63.976 0.0146725
57.5561 63.6872 0.0220089
65.6983 54.1715 0.0314724
64.5113 51.377 0.0344206
60.7697 60.9298 0.0279226
60.6487 58.1465 0.0352589
62.8111 55.0612 0.0349297
60.3126 55.7703 0.0356793
55.0716 67.9313 2
59.2167 62.3598 2
55.8035 64.9073 2
56.3222 62.077 2
65.2982 49.3993 2
63.689 53.2848 2
62.3593 50.6288 2
59.3249 59.5438 2
61.0453 54.2917 2
59.2704 56.9924 2
59.2132 55.1611 2
53.0427 68.9993 3.99148
53.9659 66.011 3.9842
57.8751 60.8547 3.97259
54.6816 63.2003 3.977
55.2043 60.5932 3.97274
63.0982 48.6385 3.96866
61.6809 52.5543 3.96657
60.1304 49.9818 3.96929
58.0021 58.2425 3.9655
59.2647 53.9197 3.96711
58.0709 55.7833 3.96094
50.1079 67.8554 3.98647
47.4621 66.5767 3.98301
46.055 69.1559 3.98707
48.1012 68.5776 2
48.8025 70.7224 3.9917
50.949 69.9311 2
51.8506 72.1454 4
54.0858 71.1327 2
56.25 69.9759 0
55.1025 7.14124 3.98967
58.3339 6.31992 4
57.0597 8.33807 2
60.3286 7.74926 2
58.9203 9.65715 0.0133743
62.2254 9.30607 0
68.2626 48.1062 0.0320358
69.4276 43.9072 0.0313537
66.6756 45.4336 0.0323329
67.5717 41.4949 0.0313468
70.039 39.6576 0.0310053
72.4883 37.5122 0.0203399
70.1265 37.522 2
67.8122 39.5112 2
67.1927 43.4651 2
65.4565 41.2008 2
66.0328 47.4098 2
64.5426 44.8305 2
67.912 37.5225 3.9688
65.6955 39.3659 3.97391
65.0755 43.0123 3.97263
63.5901 40.9146 3.97731
63.8577 46.6959 3.96976
62.6323 44.1895 3.97545
70.0557 35.3925 0.0308909
69.4645 31.1503 0.0313186
67.6332 33.5942 0.0317153
66.745 29.6287 0.0326493
62.3401 12.6567 0.0180673
62.1944 15.7948 0.0298563
61.8035 18.6961 0.0345955
65.4978 25.7065 0.0334453
64.0557 28.2745 0.0294857
62.7852 24.6587 0.0316367
61.1656 21.3648 0.0347975
60.3134 23.7641 0.0305023
59.2436 12.7898 0.0268356
56.4018 13.1365 0.0274697
55.8729 10.2398 0.0221566
67.8514 35.5495 2
67.2409 31.6274 2
65.6089 33.9357 2
64.5694 30.2086 2
60.7719 14.2345 2
60.6008 17.1441 2
60.1821 19.841 2
63.4561 26.4352 2
62.1011 28.8088 2
59.557 22.298 2
60.9185 25.3739 2
58.8239 24.3702 2
57.9054 14.3507 2
55.3059 14.6763 2
54.0375 9.13919 2
54.7847 12.0229 2
65.7881 35.6711 3.9736
65.0896 32.1669 3.97204
64.1448 34.2614 3.97742
62.4231 30.6623 3.97597
61.5091 27.1058 3.97296
60.653 29.1796 3.97717
59.3027 15.6869 3.96816
59.1505 25.8456 3.97518
59.1009 18.3798 3.96299
58.6558 20.8932 3.96314
58.1352 23.1445 3.96713
57.7925 24.7224 3.97402
52.1116 8.1567 3.98317
53.056 11.0279 3.9754
56.6659 15.7703 3.97072
53.804 13.7075 3.97331
54.362 16.0337 3.97142
55.0707 67.9315 0.00853843
65.2983 49.3998 0.0338731
55.8035 64.9064 0.0180319
59.2163 62.3581 0.0269849
56.3229 62.0747 0.0256997
63.6889 53.285 0.0348093
62.3596 50.6292 0.0326992
59.3257 59.5427 0.0333063
59.2697 56.9925 0.0366993
61.0446 54.2919 0.0342365
59.2116 55.1613 0.0342876
53.0433 68.9993 2
53.966 66.0118 2
57.8743 60.8563 2
54.6811 63.2012 2
55.2038 60.5951 2
63.0973 48.638 2
61.6816 52.5541 2
60.1304 49.9812 2
58.0013 58.2437 2
59.2671 53.9195 2
58.0689 55.7822 2
52.0692 66.9982 3.98607
52.9523 64.213 3.98082
56.6373 59.4691 3.97116
53.6761 61.6084 3.97608
[...]
POINT_DATA 3012
SCALARS Jp_lamdaP float 4
LOOKUP_TABLE default
0.999828 1 1 0.999828
1 1 1 1
0.999833 1 1 0.999833
0.999782 1 1 0.999782
0.999828 1 1 0.999828
0.99982 1 1 0.99982
0.999245 1 1 0.999245
1 1 1 1
1 1 1 1
1 1 1 1
0.999901 1 1 0.999901
0.999397 1 1 0.999397
0.999749 1 1 0.999749
0.999775 1 1 0.999775
0.999833 1 1 0.999833
0.9998 1 1 0.9998
0.999825 1 1 0.999825
0.999837 1 1 0.999837
0.999248 1 1 0.999248
1 1 1 1
0.999762 1 1 0.999762
0.999809 1 1 0.999809
0.999115 1 1 0.999115
0.999216 1 1 0.999216
0.999838 1 1 0.999838
0.999275 1 1 0.999275
1.00012 1.00179 1 0.998329
1 1 1 1
0.999903 1 1 0.999903
0.999916 1 1 0.999916
1 1 1 1
0.999406 1 1 0.999406
0.9998 1 1 0.9998
0.999823 1 1 0.999823
0.999341 1 1 0.999341
1 1 1 1
0.999429 1 1 0.999429
0.999496 1 1 0.999496
0.998424 1.00006 1 0.998359
1 1 1 1
1 1 1 1
0.999886 1 1 0.999886
1 1 1 1
0.999769 1 1 0.999769
0.999043 1 1 0.999043
1 1 1 1
0.999244 1 1 0.999244
0.999814 1 1 0.999814
0.999844 1 1 0.999844
0.999826 1 1 0.999826
0.999253 1 1 0.999253
0.99987 1 1 0.99987
0.999779 1 1 0.999779
0.999848 1 1 0.999848
0.999824 1 1 0.999824
0.999115 1 1 0.999115
0.999279 1 1 0.999279
0.999218 1 1 0.999218
1.00043 1.00212 1 0.998314
1 1 1 1
0.999752 1 1 0.999752
0.999227 1 1 0.999227
0.999079 1 1 0.999079
0.999167 1 1 0.999167
1.00262 1.0046 1 0.998033
1.0011 1.00294 1 0.998164
0.999896 1 1 0.999896
0.999389 1 1 0.999389
0.999087 1.00066 1 0.998432
1.00905 1.01152 1 0.99755
1 1 1 1
1 1 1 1
1 1 1 1
0.999414 1 1 0.999414
1 1 1 1
1 1 1 1
0.999246 1 1 0.999246
0.999974 1 1 0.999974
0.999353 1 1 0.999353
0.999561 1 1 0.999561
0.998377 1.00002 1 0.998356
1 1 1 1
0.999929 1 1 0.999929
0.999183 1 1 0.999183
0.999282 1 1 0.999282
1.00251 1.00458 1 0.997934
0.999725 1 1 0.999725
0.999147 1.00089 1 0.998257
0.998496 1 1 0.998496
0.998986 1.00122 1 0.997771
1 1 1 1
1 1 1 1
1 1 1 1
1 1 1 1
1 1 1 1
0.999881 1 1 0.999881
0.99913 1 1 0.99913
0.999891 1 1 0.999891
0.999192 1 1 0.999192
1 1 1 1
0.999034 1 1 0.999034
0.99922 1 1 0.99922
1.0022 1.00456 1 0.997654
0.999281 1 1 0.999281
1.0039 1.00618 1 0.997734
0.999768 1 1 0.999768
0.999794 1 1 0.999794
0.999858 1 1 0.999858
0.999836 1 1 0.999836
0.999116 1 1 0.999116
0.999223 1 1 0.999223
0.999285 1 1 0.999285
1.00074 1.00244 1 0.9983
1 1 1 1
0.999768 1 1 0.999768
0.999059 1 1 0.999059
0.999077 1 1 0.999077
0.999948 1 1 0.999948
0.999447 1 1 0.999447
0.999169 1 1 0.999169
1.0026 1.00462 1 0.997992
0.999387 1.00098 1 0.998414
1.00132 1.00314 1 0.998193
1.00907 1.01154 1 0.997554
0.999056 1 1 0.999056
0.999058 1 1 0.999058
1.00185 1.00402 1 0.997832
1.00264 1.00474 1 0.997917
1.00238 1.00434 1 0.998048
1.01639 1.01907 1 0.997364
1 1 1 1
1.01137 1.01392 1 0.997485
0.999617 1 1 0.999617
0.998527 1.00007 1 0.998457
1.00675 1.00916 1 0.997614
1.01964 1.02239 1 0.997318
0.999821 1 1 0.999821
1.00028 1 1.00123 0.999054
1 1 1 1
1 1 1 1
0.999252 1 1 0.999252
1 1 1 1
0.999553 1 1 0.999553
0.999358 1 1 0.999358
0.998353 1 1 0.998353
1 1 1 1
0.999945 1 1 0.999945
0.999249 1 1 0.999249
0.999344 1 1 0.999344
1.002 1.00407 1 0.997937
0.99973 1 1 0.99973
0.998839 1.00058 1 0.998261
0.998495 1 1 0.998495
0.998815 1.00106 1 0.997754
0.999841 1 1 0.999841
0.99998 1 1 0.99998
0.999759 1 1.0005 0.999261
1.00368 1.00587 1 0.997824
1.00079 1.00269 1 0.998098
1.01255 1.01525 1 0.997347
0.998728 1 1 0.998728
1.0034 1.00575 1 0.997667
0.999146 1.00072 1.00057 0.997861
1.0039 1.00633 1 0.997585
1 1 1 1
1 1 1 1
1 1 1 1
0.999891 1 1 0.999891
1 1 1 1
1 1 1 1
1 1 1 1
0.999136 1 1 0.999136
0.99907 1 1 0.99907
1 1 1 1
1 1 1 1
0.999035 1 1 0.999035
0.999166 1 1 0.999166
1.0025 1.00486 1 0.997655
0.999164 1 1 0.999164
1.00398 1.00626 1 0.997733
0.999027 1 1 0.999027
1.00146 1.00386 1 0.997608
1.00314 1.00545 1 0.997704
1.01963 1.02251 1 0.997179
1.00407 1.00632 1 0.997764
1.02025 1.02308 1 0.997239
1 1 1 1
0.999784 1 1 0.999784
0.998877 1 1 0.998877
0.999076 1 1 0.999076
1 1 1 1
0.999506 1 1 0.999506
0.999172 1 1 0.999172
1.00257 1.00462 1 0.997951
1.00156 1.00334 1 0.998223
0.999654 1.00126 1 0.998395
1.00908 1.01155 1 0.997559
0.999053 1 1 0.999053
0.999056 1 1 0.999056
1.0017 1.00398 1 0.997733
1.00266 1.00473 1 0.997945
1 1 1 1
0.999621 1 1 0.999621
0.99872 1.00021 1 0.998513
1.00233 1.00429 1 0.998046
1.01626 1.01898 1 0.997328
1.00648 1.0089 1 0.997603
1.01159 1.01411 1 0.997517
1.01921 1.02195 1 0.997325
0.999837 1 1.00003 0.999811
1.00032 1 1.00127 0.999055
1.00107 1.00345 1 0.997629
1.00232 1.00445 1 0.997879
1.01767 1.02046 1 0.997274
1.01669 1.01948 1 0.997258
1.01379 1.01638 1 0.997456
1.02768 1.03049 1 0.99727
0.99973 1 1 0.99973
1.02146 1.0242 1 0.997321
0.998731 1 1.00011 0.998625
1.0016 1.00388 1 0.997735
1.01738 1.02008 1 0.997347
1.02209 1.0248 1 0.997359
1.00005 1 1.00116 0.998891
0.999478 1 1.00022 0.99926
1.00113 1 1.00265 0.998482
0.999204 1 1 0.999204
1 1 1 1
0.999962 1 1 0.999962
0.99931 1 1 0.99931
1.00149 1.00356 1 0.997939
0.999738 1 1 0.999738
0.998534 1 1.00004 0.998494
0.998525 1.00026 1 0.998264
0.998631 1.0009 1 0.997737
0.999861 1 1 0.999861
0.999986 1 1 0.999986
0.999886 1 1.00062 0.999263
1.00338 1.00557 1 0.997824
1.00023 1.00213 1 0.998102
1.01253 1.01523 1 0.997344
0.998756 1 1.00002 0.998731
1.00315 1.00549 1 0.997677
0.998985 1.00066 1.00047 0.997857
1.00415 1.00659 1 0.99757
0.999997 1 1 0.999997
0.999254 1 1.00027 0.998982
0.99991 1 1.00038 0.99953
1.00012 1 1.00143 0.998684
1.01624 1.01902 1 0.997268
1.00834 1.01085 1 0.99751
1.02179 1.02469 1 0.997172
0.9988 1.00019 1.00048 0.998132
1.01005 1.01259 1 0.997491
1.00547 1.00636 1.00158 0.997536
1.01356 1.01616 1 0.997438
0.999832 1 1 0.999832
1 1 1 1
1 1 1 1
1 1 1 1
1 1 1 1
0.999943 1 1 0.999943
1 1 1 1
0.999879 1 1 0.999879
1 1 1 1
0.999165 1 1 0.999165
0.999107 1 1 0.999107
1.00413 1.00641 1 0.997733
1.00278 1.00513 1 0.997655
0.999037 1 1 0.999037
1 1 1 1
0.999026 1 1 0.999026
1.00164 1.00404 1 0.997608
1.00341 1.00572 1 0.997703
1.01931 1.0222 1 0.997178
1.00405 1.0063 1 0.997763
1.02022 1.02305 1 0.997237
1.001 1.00341 1 0.997601
1.01861 1.02153 1 0.997137
1.02031 1.02316 1 0.997217
1.03331 1.03616 1 0.997246
1.01934 1.02215 1 0.997247
1.03165 1.0345 1 0.997244
0.999051 1 1 0.999051
0.999054 1 1 0.999054
1.00156 1.00394 1 0.997635
1.00269 1.00472 1 0.997974
1 1 1 1
0.999623 1 1 0.999623
0.998938 1.00037 1 0.998569
1.00228 1.00424 1 0.998045
1.01614 1.0189 1 0.997292
1.01178 1.01427 1 0.997549
1.00621 1.00864 1 0.997591
1.01889 1.02162 1 0.997332
0.999801 1 1 0.999801
1.00024 1 1.00118 0.999057
1.00103 1.00343 1 0.997604
1.00229 1.00442 1 0.997876
1.01786 1.02064 1 0.997275
1.01682 1.01959 1 0.997292
0.99972 1 1 0.99972
0.998664 1 1.00004 0.998623
1.00232 1.00456 1 0.997771
1.01404 1.01663 1 0.997451
1.02791 1.0307 1 0.997286
1.01671 1.01945 1 0.997314
1.02135 1.02409 1 0.997324
1.02249 1.0252 1 0.997358
0.999641 1 1.00075 0.998894
1.00106 1 1.00258 0.998484
0.999813 1 1.00056 0.999258
1.01761 1.02044 1 0.997223
1.01794 1.02069 1 0.997301
1.03195 1.03482 1 0.997228
1.02931 1.03216 1 0.997238
1.02359 1.02634 1 0.99732
1.02848 1.0311 1 0.997462
0.998922 1 1.00014 0.998778
1.02411 1.02676 1 0.997412
0.998775 1.00072 1 0.998053
1.00856 1.01126 1 0.997327
1.01959 1.02245 1 0.997199
1.02033 1.02286 1 0.997529
0.999442 1 1 0.999442
0.998729 1 1.00029 0.998442
1.00196 1 1.00338 0.998582
0.999801 1 1.0015 0.998301
1.00309 1.00528 1 0.997823
0.999993 1 1 0.999993
0.999881 1 1 0.999881
0.999745 1 1.00048 0.999266
0.99964 1.00154 1 0.998107
1.01249 1.01519 1 0.997341
0.998841 1 1.00011 0.998735
0.998747 1.00057 1.00033 0.997852
1.00292 1.00525 1 0.997688
1.00422 1.00669 1 0.997555
0.999998 1 1 0.999998
0.999356 1 1.00037 0.998982
0.999706 1 1.00017 0.999538
1.00042 1 1.00175 0.998679
1.0161 1.01889 1 0.997264
1.00785 1.01036 1 0.997511
1.0217 1.0246 1 0.997169
0.998666 1.00008 1.00045 0.998138
1.01026 1.01279 1 0.997504
1.00517 1.00593 1.00173 0.997525
1.01373 1.01627 1 0.997506
1 1 1 1
0.999697 1 1 0.999697
0.998965 1 1.00053 0.998439
1.00011 1 1.00117 0.998942
0.999925 1 1.00153 0.998398
1.02523 1.02815 1 0.997159
1.01614 1.01888 1 0.997311
1.02045 1.02331 1 0.997207
1.00237 1.00262 1.00199 0.997761
1.01287 1.01548 1 0.99743
1.009 1.01091 1.00086 0.997253
0.999813 1 1 0.999813
0.999413 1 1 0.999413
0.999846 1 1 0.999846
0.999835 1 1 0.999835
1 1 1 1
1 1 1 1
1 1 1 1
1 1 1 1
1 1 1 1
0.999978 1 1 0.999978
1 1 1 1
0.99993 1 1 0.99993
1 1 1 1
0.999919 1 1.00005 0.999867
1 1 1 1
1.00399 1.00624 1 0.997762
1.00362 1.00593 1 0.997703
1.02001 1.02284 1 0.997236
1.01898 1.02186 1 0.997176
1.00188 1.00428 1 0.997608
0.999026 1 1 0.999026
1.00114 1.00354 1 0.9976
1.0185 1.02143 1 0.997137
1.01991 1.02276 1 0.997216
1.03338 1.03629 0.999924 0.997261
1.01888 1.0217 1 0.997244
1.03124 1.03409 1 0.997242
1.01806 1.021 1 0.997127
1.03265 1.03567 0.999827 0.997248
1.03314 1.03599 1 0.997252
1.03516 1.03846 0.999389 0.997438
1.02794 1.03082 1 0.997207
1.03221 1.0348 0.999993 0.997501
1.00102 1.00345 1 0.997578
1.00225 1.00439 1 0.997873
1.01805 1.02083 1 0.997276
1.01695 1.01968 1 0.997326
0.999709 1 1 0.999709
0.99862 1 1 0.99862
1.00302 1.00522 1 0.997806
1.01431 1.0169 1 0.997447
1.02817 1.03095 1 0.997302
1.02124 1.02398 1 0.997328
1.01596 1.01873 1 0.997281
1.02287 1.02558 1 0.997358
0.999402 1 1.00051 0.998896
1.00103 1 1.00255 0.998486
1.00007 1 1.00082 0.999255
1.01774 1.02061 1 0.997188
1.01808 1.02083 1 0.997299
1.03154 1.03439 1 0.997248
1.02951 1.03237 1 0.997237
0.998912 1 1.00014 0.998776
0.999606 1.00156 1 0.998046
1.0077 1.01032 1.00003 0.997378
1.02376 1.02652 1 0.997314
1.02822 1.03079 1 0.997502
1.01971 1.02261 1 0.997165
1.02408 1.02673 1 0.997415
1.02013 1.02263 1 0.997556
0.998897 1 1.00045 0.998444
0.999808 1 1.00153 0.998282
0.999437 1 1 0.999437
1.00175 1 1.00314 0.99861
1.03202 1.03491 1 0.997206
1.03161 1.03445 1 0.997256
1.03256 1.03577 0.99954 0.997357
1.03031 1.03336 0.999555 0.997498
1.02572 1.02831 1 0.997481
1.0271 1.0295 1 0.997664
0.998311 1 1 0.998311
1.02082 1.02318 1 0.997689
1.00045 1.0028 1 0.997661
1.01173 1.01451 1.00018 0.997091
1.02087 1.0238 1 0.99714
1.01964 1.02209 1 0.997595
0.99957 1 1 0.99957
0.999789 1 1.00101 0.998783
0.998248 1 1 0.998248
1.00169 1 1.00334 0.998356
0.999089 1 1.00083 0.998257
1 1 1 1
1.01589 1.01868 1 0.99726
0.999545 1 1 0.999545
0.999585 1 1.0006 0.998983
1.00081 1 1.00214 0.998674
1.0074 1.00991 1 0.997511
1.02167 1.02458 1 0.997167
0.998649 1 1.00051 0.998144
1.00522 1.00578 1.00193 0.997515
1.01054 1.01306 1 0.997516
1.01409 1.01656 1 0.997573
1 1 1 1
0.999704 1 1 0.999704
0.998964 1 1.00052 0.998441
1.00028 1 1.00134 0.998942
1.00026 1 1.00189 0.998377
1.02544 1.02837 1 0.997154
1.01646 1.0192 1 0.99731
1.02035 1.02322 1 0.997197
1.00168 1.00179 1.00213 0.997766
1.01547 1.01808 1 0.997437
1.00837 1.01016 1.00096 0.997272
0.999775 1 1 0.999775
0.999298 1 1.00012 0.999177
0.998783 1.00018 1.00048 0.998126
1.00139 1 1.0028 0.998597
0.999694 1 1.00142 0.998274
1.02455 1.02737 1 0.997262
1.01612 1.01887 1 0.997293
1.01839 1.02106 1 0.997382
1.00183 1.00051 1.00379 0.997545
1.00764 1.01053 1 0.997144
0.999815 1 1 0.999815
0.999346 1 1 0.999346
0.999391 1 1 0.999391
0.999172 1 1 0.999172
0.999423 1 1 0.999423
0.999851 1 1 0.999851
0.999847 1 1 0.999847
1 1 1 1
0.999837 1 1 0.999837
1 1 1 1
1 1 1 1
1 1 1 1
1 1 1 1
1 1 1 1
0.999996 1 1 0.999996
0.999969 1 1 0.999969
1 1 1 1
1 1 1 1
0.999918 1 1 0.999918
1 1 1 1
1.01852 1.02134 1 0.997241
1.0197 1.02255 1 0.997215
1.03095 1.03381 1 0.99724
1.0335 1.03651 0.999814 0.997276
1.01831 1.02124 1 0.997137
1.00121 1.00361 1 0.9976
1.01788 1.02081 1 0.997128
1.03267 1.03568 0.999845 0.997242
1.03311 1.03595 1 0.997252
1.03456 1.03811 0.999114 0.997468
1.0285 1.03139 1 0.997201
1.03201 1.03479 0.999788 0.997521
1.03194 1.03494 0.99989 0.997215
1.03351 1.03759 0.998663 0.997405
1.0339 1.03702 0.99947 0.997526
1.03276 1.03777 0.997567 0.997595
1.02891 1.03159 1 0.997403
1.03171 1.03482 0.999282 0.99771
1.01779 1.0207 1 0.997153
1.01819 1.02095 1 0.997297
1.03106 1.03388 1 0.997268
1.02968 1.03253 1 0.997237
0.998863 1 1.00009 0.998775
1.00045 1.00241 1 0.99804
1.00698 1.0094 1.00018 0.997428
1.02394 1.0267 1 0.997307
1.02786 1.0304 1 0.997541
1.02407 1.02672 1 0.997419
1.01987 1.0228 1 0.997132
1.01976 1.02223 1 0.997583
0.999046 1 1.0006 0.998446
0.999805 1 1.00154 0.998263
0.999476 1 1.00004 0.999432
1.00132 1 1.00269 0.998639
1.03187 1.03476 1 0.997206
1.03112 1.03398 1 0.997238
1.03242 1.03558 0.999563 0.997384
1.03046 1.03328 0.999792 0.997481
0.998351 1.00005 1 0.998305
1.00064 1.00291 1.00003 0.997708
1.01195 1.01451 1.00039 0.997082
1.02534 1.02796 1 0.997446
1.02665 1.02906 0.999932 0.997719
1.01978 1.02272 1 0.997127
1.02134 1.0237 1 0.997691
1.02073 1.02314 1 0.997641
0.998245 1 1 0.998245
0.998701 1 1.00044 0.998263
1.00242 1 1.00408 0.998349
0.999535 1 1 0.999535
0.999784 1 1.00097 0.99881
1.03264 1.03694 0.998464 0.99739
1.03275 1.0362 0.99923 0.997436
1.02796 1.03212 0.998256 0.997704
1.02367 1.02629 0.999704 0.997736
0.998397 1.00034 1 0.998063
1.02458 1.02679 1 0.997856
1.00058 1.00288 1.00029 0.997419
1.01099 1.01365 1.00051 0.996861
1.01841 1.02136 1 0.997114
0.999624 1 1 0.999624
0.9992 1 1.00016 0.999038
1.00064 1 1.00208 0.998554
0.998202 1 1 0.998202
1.00245 1 1.0043 0.998164
0.99819 1 1 0.99819
1 1 1 1
0.999712 1 1 0.999712
1.02567 1.02861 1 0.997148
1.00052 1 1.00158 0.998942
0.998831 1 1.00039 0.998443
1.00077 1 1.00242 0.998356
1.01664 1.01938 1 0.997309
1.02008 1.02296 1 0.997187
1.0009 1.00084 1.00229 0.997771
1.00722 1.00917 1.00077 0.997291
1.0179 1.02051 1 0.997446
0.99978 1 1 0.99978
0.999268 1 1.00009 0.999181
0.998634 1.00009 1.00041 0.998129
1.00195 1 1.00336 0.998593
0.999778 1 1.00151 0.998269
1.0245 1.02732 1 0.997255
1.01653 1.01929 1 0.997283
1.01816 1.02081 1 0.997408
1.00166 1.00091 1.00324 0.997511
1.00647 1.00932 1.00006 0.997115
0.999319 1 1 0.999319
1.00063 1 1.00185 0.998781
1.00044 1.00047 1.002 0.997979
1.00178 1 1.00345 0.998335
0.999159 1 1.001 0.998165
1.02484 1.02722 1 0.997682
1.01417 1.01702 1 0.997202
1.0149 1.01752 1 0.997432
1.00367 1.00201 1.00433 0.997344
1.00117 1.00426 1 0.996924
0.999818 1 1 0.999818
0.999363 1 1 0.999363
0.999086 1 1 0.999086
0.999369 1 1 0.999369
0.999422 1 1 0.999422
0.999141 1 1 0.999141
0.998998 1 1 0.998998
0.999108 1 1 0.999108
0.999427 1 1 0.999427
0.999847 1 1 0.999847
0.999851 1 1 0.999851
1 1 1 1
0.999849 1 1 0.999849
1 1 1 1
1 1 1 1
1 1 1 1
1 1 1 1
1 1 1 1
1 1 1 1
0.999993 1 1 0.999993
1 1 1 1
0.999959 1 1 0.999959
1 1 1 1
1 1 1 1
1.02901 1.03191 1 0.997196
1.03288 1.03573 1 0.997252
1.0318 1.03479 0.999572 0.997541
1.03393 1.0377 0.998866 0.997498
1.03273 1.03572 0.999874 0.997235
1.01779 1.02073 1 0.997128
1.03228 1.03525 0.999933 0.997197
1.03375 1.03762 0.998871 0.997396
1.03391 1.03686 0.999651 0.997506
1.03213 1.03742 0.997279 0.997609
1.02825 1.03093 1 0.997402
1.03074 1.03405 0.999046 0.997752
1.03324 1.03696 0.999039 0.997375
1.03288 1.039 0.99652 0.997587
1.03234 1.03772 0.997095 0.997709
1.02883 1.03197 0.999163 0.997799
1.03178 1.03467 1 0.997206
1.03065 1.03353 1 0.99722
1.03231 1.03541 0.999585 0.997411
1.03069 1.03331 0.999999 0.997464
0.998416 1.00012 1 0.998298
1.00055 1.0028 1 0.997754
1.01214 1.01452 1.00058 0.997073
1.02489 1.02755 1 0.997411
1.02627 1.02868 0.999886 0.997773
1.02201 1.02437 1 0.997694
1.01888 1.02183 1 0.997114
1.02195 1.02432 1 0.997688
0.998243 1 1 0.998243
0.998268 1 1 0.998268
1.00383 1 1.0055 0.998342
0.9995 1 1 0.9995
0.999834 1 1.001 0.998838
1.03317 1.03713 0.998787 0.997393
1.03282 1.03633 0.999176 0.997436
1.02791 1.03167 0.998658 0.997693
0.998877 1.00082 1 0.998056
1.00172 1.00401 1.00026 0.997463
1.0107 1.01312 1.00076 0.99685
1.02432 1.02695 0.999718 0.997725
1.0185 1.02137 1 0.997194
1.02271 1.02503 0.999908 0.997833
0.99964 1 1 0.99964
0.998432 1.00024 1 0.998193
0.998276 1 1 0.998276
1.00243 1 1.00429 0.998148
1.00065 1 1.00208 0.998567
0.999146 1 1.00014 0.99901
1.03208 1.0383 0.996523 0.997476
1.03057 1.03794 0.995268 0.997618
1.0235 1.02997 0.995917 0.997791
1.02764 1.03158 0.998248 0.997934
0.999293 1.0014 1 0.997901
1.01885 1.02139 1 0.99751
1.00274 1.00411 1.00165 0.996991
1.00635 1.00862 1.00104 0.99671
0.999756 1 1 0.999756
0.99921 1 1 0.99921
0.999116 1 1.00038 0.998737
1.00268 1 1.00443 0.998251
0.998251 1.00016 1 0.998088
1.00143 1 1.00341 0.998025
0.999785 1 1 0.999785
0.999184 1 1 0.999184
1.02464 1.02746 1 0.997249
1.0021 1 1.00351 0.99859
0.998402 1 1.00027 0.998133
0.999744 1 1.00148 0.998265
1.01723 1.02001 1 0.997273
1.01817 1.02079 1 0.997433
1.00168 1.00148 1.00273 0.997476
1.00536 1.00802 1.00027 0.997086
0.999321 1 1 0.999321
1.0004 1 1.00162 0.998786
1.00023 1.00025 1.00198 0.997994
1.00193 1 1.00359 0.99834
0.998715 1 1.00048 0.99824
1.02527 1.02768 0.999932 0.997718
1.0135 1.01634 1 0.997209
1.01628 1.01882 1 0.997505
1.00306 1.00118 1.00458 0.997308
1.00178 1.00489 1.00003 0.996874
0.999008 1 1 0.999008
1.00143 1 1.00299 0.998444
1.00218 1.00058 1.00378 0.997829
0.999593 1 1.00155 0.998043
1.02755 1.03686 0.993068 0.997943
1.01944 1.02183 0.999872 0.99779
1.00791 1.01095 1 0.996996
1.00346 1.00227 1.00426 0.996944
0.999381 1 1 0.999381
0.999099 1 1 0.999099
0.998964 1 1 0.998964
0.999422 1 1 0.999422
0.99911 1 1 0.99911
0.999426 1 1 0.999426
0.998983 1 1 0.998983
0.999121 1 1 0.999121
0.998901 1 1 0.998901
0.998938 1 1 0.998938
0.999086 1 1 0.999086
0.999412 1 1 0.999412
0.999838 1 1 0.999838
0.999846 1 1 0.999846
1 1 1 1
0.999851 1 1 0.999851
1 1 1 1
1 1 1 1
1 1 1 1
1 1 1 1
1 1 1 1
1 1 1 1
1 1 1 1
1 1 1 1
0.999989 1 1 0.999989
1 1 1 1
1 1 1 1
1.0275 1.03017 1 0.997402
1.03401 1.03678 0.99984 0.997487
1.02978 1.03328 0.998819 0.997793
1.03151 1.03709 0.996993 0.997623
1.03397 1.03764 0.999072 0.997388
1.03262 1.03554 1 0.997179
1.03289 1.0369 0.998756 0.997376
1.03234 1.03832 0.996657 0.997578
1.03179 1.03725 0.997028 0.997709
1.0305 1.03352 0.999272 0.997805
1.03247 1.03865 0.996514 0.997529
1.03287 1.0421 0.993378 0.997753
1.03337 1.03997 0.995801 0.997845
1.03367 1.0373 0.999108 0.997396
1.0329 1.03644 0.99915 0.997436
1.02785 1.03115 0.999114 0.997682
0.999528 1.00148 1 0.998049
1.00291 1.00524 1.00018 0.997508
1.01006 1.01241 1.00085 0.996839
1.02492 1.02756 0.999714 0.997714
1.0208 1.02321 0.999835 0.997809
1.01866 1.02145 1 0.997275
0.998752 1.00057 1 0.998184
0.998363 1 1 0.998363
1.00233 1 1.0042 0.998133
0.999656 1 1 0.999656
1.0001 1 1.00152 0.998581
0.999083 1 1.0001 0.998982
1.03283 1.03859 0.99696 0.997484
1.03073 1.03812 0.995239 0.997627
1.02387 1.02972 0.99653 0.997783
0.999671 1.00178 1 0.99789
1.00222 1.00375 1.0014 0.997077
1.0058 1.00816 1.0009 0.996757
1.02763 1.03129 0.998507 0.997942
1.01917 1.02181 0.999917 0.997496
0.999799 1 1 0.999799
0.99921 1 1 0.99921
0.99825 1.00013 1 0.998125
1.00264 1 1.00454 0.998112
1.00265 1 1.00438 0.998274
0.999043 1 1.00033 0.998713
1.03162 1.04052 0.993753 0.997672
1.02318 1.03532 0.990494 0.997755
1.02308 1.03081 0.994502 0.997981
1.0204 1.02492 0.997622 0.997965
1.00046 1.00197 1.00088 0.99762
1.00543 1.00716 1.0014 0.996878
1.003 1.00357 1.00264 0.996793
0.999897 1 1 0.999897
0.999515 1 1 0.999515
0.999309 1 1 0.999309
0.998847 1 1 0.998847
0.99993 1 1.00148 0.998452
1.00331 1 1.00517 0.998146
0.998157 1 1 0.998157
1.01769 1 1.01944 0.998274
0.999324 1 1 0.999324
1.0004 1 1.00161 0.998792
1.0256 1.02805 0.999864 0.997755
1.0024 1 1.00406 0.998345
1.00016 1 1.00215 0.998008
0.998349 1 1.00004 0.998314
1.01254 1.01537 1 0.997216
1.01746 1.01993 1 0.997579
1.0026 1.00052 1.00482 0.997273
1.00251 1.00571 1 0.996823
0.998988 1 1 0.998987
1.00157 1 1.00311 0.998458
1.00238 1.00038 1.00415 0.997855
0.999433 1 1.00136 0.998074
1.02892 1.03773 0.993538 0.997958
1.01928 1.02163 0.999949 0.99775
1.00896 1.01196 1 0.997035
1.00374 1.00308 1.00377 0.996899
0.99924 1 1.00045 0.998795
1.02632 1.04002 0.988846 0.997958
1.00109 1 1.00291 0.998186
1.00134 1.00109 1.00268 0.99758
1.02669 1.03076 0.997999 0.998046
1.00923 1.01214 1 0.997129
1.00486 1.00489 1.00323 0.996749
0.999112 1 1 0.999112
0.998959 1 1 0.998959
0.998877 1 1 0.998877
0.999425 1 1 0.999425
0.999134 1 1 0.999134