# vtk DataFile Version 2.0
Wound Healing Simulation
ASCII
DATASET UNSTRUCTURED_GRID
POINTS 3012 float
69.9759 18.75 4
67.2507 60.3285 4
69.976 18.75 2
73.0099 25.446 4
71.1327 20.9142 4
68.6801 16.6661 4
67.8223 19.9263 3.97527
67.2507 60.3286 2
71.1327 54.0858 4
68.6801 58.3339 4
65.6939 62.2254 4
65.3092 58.9994 3.97416
74.6784 42.3946 4
73.7221 47.2057 4
69.9759 18.75 0
73.0099 25.446 2
68.6801 16.6661 2
71.1327 20.9142 2
67.823 19.9302 2
74.6792 32.6053 4
73.7222 27.7943 4
72.1454 23.1494 4
70.6117 26.2216 3.97503
68.8827 21.9579 3.97564
67.2507 14.6715 4
66.6335 17.973 3.97408
65.7842 21.03 3.96381
67.2507 60.3285 0
71.1327 54.0858 2
68.6801 58.3339 2
65.694 62.2255 2
65.3103 58.9946 2
72.1454 51.8506 4
69.9759 56.25 4
68.8332 53.1135 3.97513
64.0165 64.0165 4
66.6075 57.1327 3.97484
63.8824 60.7634 3.97376
63.4924 57.7641 3.96556
60.3285 67.2507 4
74.6792 42.3947 2
73.7222 47.2057 2
74.9194 39.9526 4
74.2788 44.8158 4
72.1665 42.0856 3.9765
73.0099 49.554 4
71.2469 46.5979 3.97487
73.0099 25.446 0
71.1327 20.9142 0
68.6801 16.6661 0
67.8223 19.9263 0.024734
74.6792 32.6053 2
73.7222 27.7943 2
67.2508 14.6715 2
72.1455 23.1494 2
70.6113 26.2222 2
66.6349 17.9777 2
68.883 21.9607 2
65.7814 21.0321 2
74.9197 35.0474 4
74.2794 30.1841 4
72.1832 32.9443 3.97678
71.2761 28.4323 3.97538
69.8128 24.0597 3.9754
68.3397 26.9548 3.96426
66.7509 22.9371 3.96383
65.694 12.7746 4
65.3198 16.1059 3.97237
64.7036 19.2009 3.96386
63.7963 22.0708 3.96435
71.1327 54.0858 0
65.6939 62.2254 0
68.6801 58.3339 0
65.3092 58.9994 0.0258408
72.1455 51.8506 2
69.9759 56.25 2
68.8334 53.111 2
64.0165 64.0165 2
66.6084 57.1285 2
63.8839 60.7582 2
63.4908 57.764 2
62.2254 65.694 4
58.8917 65.4129 3.98328
69.766 50.9894 3.97486
67.7804 55.1672 3.97523
66.6344 52.2059 3.96396
62.3326 62.4244 3.97711
64.652 56.0271 3.96454
62.1955 59.3913 3.96536
61.77 56.6522 3.96151
58.3339 68.6801 4
60.3285 67.2508 2
73.7221 47.2057 0
74.6784 42.3946 0
74.9197 39.9526 2
74.2794 44.8159 2
72.1657 42.0853 2
73.0099 49.554 2
71.2465 46.5977 2
75 37.5 4
72.4038 39.8025 3.97752
71.7806 44.3529 3.9762
69.7988 41.7898 3.96693
70.5725 48.8137 3.97458
68.9054 46.0136 3.96534
74.6792 32.6053 0
73.7222 27.7943 0
67.2507 14.6715 0
72.1454 23.1494 0
70.6117 26.2216 0.0249686
68.8827 21.9579 0.0243638
66.6335 17.973 0.0259155
65.7842 21.03 0.0361929
74.9197 35.0474 2
74.2794 30.1841 2
72.1824 32.9446 2
71.2757 28.4328 2
65.694 12.7745 2
65.3212 16.111 2
69.8127 24.0613 2
68.3397 26.9559 2
64.699 19.203 2
66.7508 22.9388 2
63.7956 22.0717 2
72.4117 35.2249 3.97757
71.8021 30.6773 3.97638
69.835 33.2711 3.96686
68.9601 29.0414 3.96518
67.6026 24.9154 3.96399
66.0891 27.6622 3.96832
64.0165 10.9835 4
64.6574 23.8636 3.96581
63.8858 14.3304 3.97312
63.5036 17.457 3.96446
62.8226 20.3584 3.96238
61.9106 23.0125 3.9685
60.6809 11.1017 3.97822
57.6055 11.4744 3.96928
72.1454 51.8506 0
69.9759 56.25 0
68.8332 53.1135 0.0248679
64.0165 64.0165 0
63.8824 60.7634 0.0262375
66.6075 57.1327 0.0251591
63.4924 57.7641 0.0344361
62.2255 65.694 2
58.8939 65.409 2
69.7658 50.9878 2
67.7811 55.1637 2
66.6337 52.2047 2
62.3349 62.4197 2
64.6492 56.0264 2
62.1929 59.3911 2
61.7693 56.6525 2
60.6659 63.9736 3.97981
57.0227 66.7337 3.98636
57.5524 63.6746 3.97137
67.493 50.1738 3.96416
65.6907 54.17 3.9641
64.4228 51.3518 3.96595
60.7674 60.918 3.96842
62.7452 55.0375 3.96332
60.6214 58.1288 3.96035
60.2169 55.7315 3.96464
56.25 69.9759 4
58.3339 68.6801 2
60.3285 67.2507 0
58.9182 9.65964 3.97955
62.2254 9.30607 4
73.0099 49.554 0
74.2788 44.8158 0
71.2469 46.5979 0.0251269
72.1665 42.0856 0.0234983
74.9194 39.9526 0
75 37.5 2
72.4036 39.8024 2
71.7804 44.3523 2
69.798 41.7895 2
70.5719 48.813 2
68.9055 46.0132 2
72.4873 37.5126 3.97714
70.0364 39.6582 3.9673
69.4248 43.9071 3.96641
67.4975 41.4887 3.97256
68.2543 48.105 3.96462
66.59 45.4184 3.97058
74.9197 35.0474 0
74.2794 30.1841 0
72.1832 32.9443 0.0232153
71.2761 28.4323 0.0246152
65.694 12.7746 0
65.3198 16.1059 0.0276309
69.8128 24.0597 0.024597
68.3397 26.9548 0.0357397
66.7509 22.9371 0.0361734
64.7036 19.2009 0.0361377
63.7963 22.0708 0.0356512
72.4115 35.2249 2
71.8019 30.6779 2
69.8342 33.2718 2
68.9599 29.0424 2
64.0165 10.9835 2
63.8878 14.3358 2
63.5018 17.4582 2
67.6032 24.9167 2
66.088 27.6631 2
62.8207 20.3593 2
64.6565 23.8646 2
61.9096 23.0136 2
60.6835 11.106 2
57.6064 11.4675 2
70.0532 35.3941 3.96733
69.4617 31.1526 3.96596
67.5632 33.6033 3.97174
66.6657 29.6463 3.96921
65.4203 25.7302 3.96715
63.9224 28.3102 3.97514
62.3377 12.6589 3.97622
62.6567 24.7033 3.97077
62.1903 15.8011 3.9656
61.7444 18.7243 3.96061
61.0467 21.4154 3.96554
60.1563 23.8286 3.97256
59.2392 12.81 3.96676
55.8684 10.258 3.97279
56.3935 13.1723 3.96924
69.766 50.9894 0.0251426
62.2254 65.694 0
58.8917 65.4129 0.0167238
67.7804 55.1672 0.0247742
66.6344 52.2059 0.0360401
62.3326 62.4244 0.0228888
62.1955 59.3913 0.0346423
64.652 56.0271 0.035459
61.77 56.6522 0.038495
60.6682 63.9706 2
57.0252 66.7316 2
57.5535 63.679 2
67.4937 50.1728 2
65.6875 54.1686 2
64.4226 51.3514 2
60.7661 60.9197 2
62.745 55.0375 2
60.6249 58.1306 2
60.2154 55.7314 2
55.0685 67.9311 3.98782
59.2131 62.3371 3.96896
55.8008 64.9008 3.97462
56.3159 62.0444 3.97132
65.2064 49.3765 3.96731
63.6063 53.2592 3.96457
62.2107 50.5865 3.9698
59.3162 59.5257 3.9616
60.9212 54.2494 3.96709
59.1878 56.9536 3.9615
59.0796 55.1109 3.96771
48.0997 68.5741 3.98392
50.9463 69.9313 3.98971
54.0858 71.1327 4
56.25 69.976 2
58.3339 68.6801 0
57.0556 8.33883 3.98181
60.3285 7.74928 4
58.9211 9.66376 2
62.2255 9.30602 2
70.5725 48.8137 0.0254245
71.7806 44.3529 0.0238009
68.9054 46.0136 0.0346601
69.7988 41.7898 0.0330723
72.4038 39.8025 0.0224804
75 37.5 0
72.4865 37.5125 2
70.0362 39.6581 2
69.4244 43.9066 2
67.4957 41.4884 2
68.256 48.1043 2
66.5875 45.4177 2
70.1245 37.523 3.96737
67.7436 39.5092 3.97285
67.1101 43.4547 3.97129
65.3219 41.1883 3.97661
65.9425 47.3905 3.96918
64.3952 44.8031 3.97591
72.4117 35.2249 0.0224258
71.8021 30.6773 0.0236212
69.835 33.2711 0.0331436
68.9601 29.0414 0.0348161
64.0165 10.9835 0
63.8858 14.3304 0.0268783
63.5036 17.457 0.0355359
67.6026 24.9154 0.0360076
66.0891 27.6622 0.0316819
64.6574 23.8636 0.034194
62.8226 20.3584 0.0376244
61.9106 23.0125 0.031503
60.6809 11.1017 0.0217764
57.6055 11.4744 0.030717
70.053 35.3945 2
69.4614 31.1533 2
67.5614 33.6038 2
66.6639 29.647 2
62.3404 12.6639 2
62.1884 15.8021 2
61.7438 18.7245 2
65.4195 25.7312 2
63.9201 28.3115 2
61.0451 21.4164 2
62.6551 24.7045 2
60.1548 23.8299 2
59.2398 12.8102 2
56.3948 13.1698 2
55.8706 10.2558 2
67.782 35.5548 3.97234
67.1681 31.6403 3.97067
65.4784 33.9514 3.97683
64.434 30.2385 3.97624
63.3239 26.4754 3.97306
61.9241 28.8619 3.97612
60.7679 14.2467 3.96675
60.7514 25.4351 3.97497
60.5688 17.1674 3.9601
60.0623 19.8948 3.96203
59.4028 22.3658 3.96833
58.6385 24.4502 3.97454
54.0337 9.14809 3.97279
57.8962 14.3787 3.96525
54.7753 12.0703 3.96799
55.2927 14.7191 3.96537
67.493 50.1738 0.0358362
57.0227 66.7337 0.0136385
60.6659 63.9736 0.0201873
57.5524 63.6746 0.0286345
65.6907 54.17 0.0359002
64.4228 51.3518 0.0340519
60.7674 60.918 0.0315834
60.6214 58.1288 0.039654
62.7452 55.0375 0.0366789
60.2169 55.7315 0.0353635
55.0707 67.9294 2
59.213 62.3396 2
55.8013 64.8994 2
56.3147 62.0447 2
65.2056 49.3759 2
63.606 53.259 2
62.2103 50.586 2
59.3161 59.5288 2
60.9214 54.2494 2
59.1934 56.9552 2
59.0835 55.1116 2
53.0405 68.9993 3.98932
53.9632 66.0048 3.97814
57.8675 60.8328 3.96875
54.6736 63.1749 3.97081
55.1935 60.5634 3.97471
62.9468 48.5995 3.9721
61.5446 52.5109 3.96844
59.9344 49.9232 3.97241
57.9617 58.2127 3.96079
59.111 53.865 3.96933
57.9379 55.7277 3.9629
50.1063 67.852 3.98299
47.4604 66.5703 3.97883
46.0537 69.1534 3.98488
48.1006 68.5741 2
48.8002 70.7225 3.99021
50.948 69.9304 2
51.8506 72.1454 4
54.0858 71.1327 2
56.25 69.9759 0
55.1006 7.14314 3.98534
58.3339 6.31992 4
57.0588 8.34228 2
60.3286 7.74926 2
58.9182 9.65964 0.0204462
62.2254 9.30607 0
68.2543 48.105 0.0353825
69.4248 43.9071 0.0335854
66.59 45.4184 0.0294229
67.4975 41.4887 0.0274405
70.0364 39.6582 0.0326962
72.4873 37.5126 0.0228596
70.1238 37.5232 2
67.7413 39.5091 2
67.1093 43.4544 2
65.319 41.1877 2
65.9419 47.3899 2
64.3935 44.8022 2
67.8441 37.5242 3.97274
65.5613 39.3612 3.97664
64.9347 42.9908 3.97672
63.4182 40.9002 3.9766
63.7051 46.662 3.97418
62.4367 44.148 3.97623
70.0532 35.3941 0.0326704
69.4617 31.1526 0.0340366
67.5632 33.6033 0.0282563
66.6657 29.6463 0.0307939
62.3377 12.6589 0.0237804
62.1903 15.8011 0.0343962
61.7444 18.7243 0.0393934
65.4203 25.7302 0.0328471
63.9224 28.3102 0.0248637
62.6567 24.7033 0.0292319
61.0467 21.4154 0.034465
60.1563 23.8286 0.0274414
59.2392 12.81 0.0332421
56.3935 13.1723 0.0307578
55.8684 10.258 0.0272095
67.7796 35.5551 2
67.167 31.6408 2
65.4747 33.9522 2
64.4311 30.2397 2
60.7675 14.2477 2
60.5666 17.1676 2
60.0608 19.8958 2
63.3221 26.4766 2
61.9219 28.8626 2
59.4039 22.3666 2
60.7491 25.4364 2
58.6369 24.4516 2
57.8951 14.3791 2
55.294 14.7159 2
54.0361 9.14799 2
54.7764 12.0653 2
65.66 35.6807 3.97671
64.954 32.1903 3.97656
63.9848 34.2801 3.9766
62.2409 30.7037 3.97628
61.3349 27.1645 3.97576
60.4434 29.2411 3.97631
59.2893 15.7095 3.96061
58.953 25.9279 3.9762
59.01 18.4305 3.96035
58.5056 20.9655 3.9637
57.9587 23.2283 3.96978
57.5939 24.8137 3.97525
52.1093 8.16327 3.97658
53.0484 11.057 3.96952
56.6475 15.8084 3.96038
53.7884 13.7589 3.96494
54.3341 16.0885 3.96052
55.0685 67.9311 0.0121793
65.2064 49.3765 0.0326889
55.8008 64.9008 0.0253827
59.2131 62.3371 0.031036
56.3159 62.0444 0.0286842
63.6063 53.2592 0.0354328
62.2107 50.5865 0.0302
59.3162 59.5257 0.0384001
59.1878 56.9536 0.0385003
60.9212 54.2494 0.032906
59.0796 55.1109 0.0322887
53.0426 68.9983 2
53.9643 66.0044 2
57.8659 60.8339 2
54.6732 63.1762 2
55.1908 60.5637 2
62.9453 48.5988 2
61.5449 52.5107 2
59.9356 49.9229 2
57.9588 58.2136 2
59.115 53.8655 2
57.9344 55.7264 2
52.0673 66.9941 3.98153
52.9472 64.2014 3.97511
56.6205 59.4435 3.96498
53.6615 61.5662 3.97037
[...]
POINT_DATA 3012
SCALARS Jp_lamdaP float 4
LOOKUP_TABLE default
0.999646 1 1 0.999646
1 1 1 1
0.999657 1 1 0.999657
0.999591 1 1 0.999591
0.999648 1 1 0.999648
0.999626 1 1 0.999626
0.999729 1.00095 1 0.998785
1 1 1 1
1 1 1 1
1 1 1 1
0.999721 1 1 0.999721
0.998886 1 1 0.998886
0.999593 1 1 0.999593
0.999598 1 1 0.999598
0.999659 1 1 0.999659
0.999619 1 1 0.999619
0.999633 1 1 0.999633
0.999666 1 1 0.999666
0.999841 1.00106 1 0.998786
1 1 1 1
0.999574 1 1 0.999574
0.999625 1 1 0.999625
0.99873 1.00007 1 0.998663
0.999569 1.00081 1 0.998764
0.999629 1 1 0.999629
0.999087 1.00029 1 0.998797
1.01572 1.01829 1 0.997476
1 1 1 1
0.999815 1 1 0.999815
0.999829 1 1 0.999829
1 1 1 1
0.99894 1.00004 1 0.998896
0.999623 1 1 0.999623
0.999651 1 1 0.999651
1.00029 1.00135 1 0.99894
1 1 1 1
0.999374 1.00035 1 0.999022
0.998986 1 1 0.998986
1.00818 1.01075 1 0.997455
1 1 1 1
1 1 1 1
0.999799 1 1 0.999799
1 1 1 1
0.999605 1 1 0.999605
0.998595 1 1 0.998595
1 1 1 1
0.998869 1.00003 1 0.998844
0.999643 1 1 0.999643
0.999679 1 1 0.999679
0.999635 1 1 0.999635
0.999943 1.00115 1 0.998791
0.999784 1 1 0.999784
0.999599 1 1 0.999599
0.999643 1 1 0.999643
0.999649 1 1 0.999649
0.998696 1.00004 1 0.998659
0.999332 1.00053 1 0.9988
0.999557 1.00079 1 0.998764
1.01589 1.01848 1 0.997462
1 1 1 1
0.999576 1 1 0.999576
0.998878 1 1 0.998878
0.998635 1 1 0.998635
0.999026 1.00031 1 0.998716
1.0186 1.02144 1 0.997219
1.01687 1.01959 1 0.997329
0.999694 1 1 0.999694
0.998897 1 1 0.998897
1.0129 1.01537 1 0.997565
1.03582 1.03937 1 0.996586
1 1 1 1
1 1 1 1
1 1 1 1
0.998904 1 1 0.998904
1 1 1 1
1 1 1 1
1.00001 1.00126 1 0.99875
0.999896 1 1 0.999896
0.999097 1.00024 1 0.998853
0.999146 1 1.00004 0.99911
1.00678 1.00935 1 0.997451
1 1 1 1
1.0012 1 1.00146 0.999733
0.999764 1.00109 1 0.998671
0.999814 1.00103 1 0.998783
1.02016 1.0232 1 0.997031
0.999729 1 1.00035 0.999375
1.01289 1.01558 1 0.997354
1.00344 1.00584 1 0.997606
1.01775 1.0211 1 0.996721
1 1 1 1
1 1 1 1
1 1 1 1
1 1 1 1
1 1 1 1
0.999801 1 1 0.999801
0.998728 1 1 0.998728
0.9998 1 1 0.9998
0.998902 1.00016 1 0.998744
1 1 1 1
0.998612 1 1 0.998612
0.998839 1 1 0.998839
1.01732 1.02052 1 0.996864
0.999314 1.00044 1 0.998877
1.02133 1.02452 1 0.996888
0.999615 1 1 0.999615
0.999622 1 1 0.999622
0.999654 1 1 0.999654
0.999671 1 1 0.999671
0.998664 1.00001 1 0.998657
0.999569 1.0008 1 0.998768
0.999508 1.0007 1 0.998806
1.016 1.01859 1 0.997449
1 1 1 1
0.9996 1 1 0.9996
0.998641 1 1 0.998641
0.998629 1 1 0.998629
0.999848 1 1 0.999848
0.998978 1 1 0.998976
0.998969 1.00025 1 0.998715
1.01863 1.0215 1 0.997183
1.01321 1.0157 1 0.997548
1.01721 1.0199 1 0.997355
1.03572 1.03926 1 0.996594
0.998634 1 1 0.998634
0.998635 1 1 0.998635
1.01642 1.01936 1 0.997115
1.01862 1.02155 1 0.997135
1.01821 1.02104 1 0.997231
1.04554 1.04916 1 0.996543
1 1 1 1
1.03918 1.04276 1 0.99657
0.999375 1 1.00028 0.999098
1.00761 1.01009 1 0.997539
1.03243 1.03595 1 0.996602
1.0415 1.04518 1 0.996485
1.00143 1 1.00198 0.999443
1.00653 1 1.00822 0.998325
1 1 1 1
1 1 1 1
0.999879 1.00112 1 0.998756
1 1 1 1
0.999242 1 1.00018 0.999058
0.999071 1.00021 1 0.998859
1.00565 1.00822 1 0.997447
1 1 1 1
1.00096 1 1.0012 0.999757
0.999976 1.00119 1 0.998791
0.999669 1.00078 1 0.998893
1.01958 1.02262 1 0.997031
1.00002 1 1.00071 0.999309
1.01173 1.01441 1 0.997356
1.00241 1.00479 1.00003 0.997605
1.01918 1.02254 1 0.996711
1.00118 1 1.00165 0.999526
1.00023 1 1.00035 0.999872
1.00368 1 1.00506 0.998627
1.02209 1.02524 1 0.996932
1.01695 1.01982 1 0.997191
1.04246 1.04618 1 0.996442
1.00082 1.00231 1.00063 0.997894
1.02808 1.0315 1 0.996681
1.01234 1.015 1.00057 0.996808
1.0277 1.03125 1 0.996564
1 1 1 1
1 1 1 1
1 1 1 1
1.0012 1 1.00161 0.999594
1 1 1 1
1 1 1 1
1 1 1 1
0.998988 1.00034 1 0.998645
0.998628 1 1 0.998628
1 1 1 1
1 1 1 1
0.998613 1 1 0.998613
0.998741 1 1 0.998741
1.01801 1.02122 1 0.996864
0.999347 1.00069 1 0.998659
1.02146 1.02465 1 0.996888
0.99861 1 1 0.99861
1.01586 1.01909 1 0.996834
1.01946 1.02264 1 0.996888
1.05089 1.05458 1 0.996499
1.02237 1.02556 1 0.996892
1.05223 1.05593 1 0.99649
1 1 1 1
0.999625 1 1 0.999625
0.998378 1 1 0.998378
0.998624 1 1 0.998624
1 1 1 1
0.999163 1.00011 1 0.999058
0.998931 1.00021 1 0.998716
1.01863 1.02154 1 0.997148
1.01763 1.0203 1 0.997381
1.01353 1.01604 1 0.997531
1.0357 1.03923 1 0.996602
0.998632 1 1 0.998632
0.998629 1 1 0.998629
1.01635 1.01942 1 0.996986
1.01871 1.02162 1 0.997155
1 1 1 1
0.999275 1 1.00013 0.999149
1.00912 1.01153 1 0.997619
1.01833 1.02116 1 0.997226
1.04538 1.04902 1 0.996533
1.03193 1.03546 1 0.996596
1.03944 1.04298 1 0.996605
1.04108 1.04475 1 0.996494
1.00126 1 1.00183 0.999431
1.00515 1 1.00684 0.998327
1.0157 1.01891 1 0.996855
1.01718 1.02011 1 0.997133
1.04793 1.05155 1 0.996557
1.04621 1.04987 0.999993 0.99652
1.04292 1.04646 1 0.996614
1.05174 1.05558 0.999702 0.996653
1.00047 1 1.0012 0.999272
1.04419 1.04777 1 0.996579
1.00262 1.0048 1.00011 0.997728
1.02543 1.02885 1 0.996671
1.0389 1.04264 1 0.996411
1.04142 1.04487 1 0.996697
1.0031 1.00032 1.00471 0.998087
1.00522 1 1.00661 0.998622
1.0034 1.00032 1.00546 0.997636
0.999964 1.00126 1 0.998701
1 1 1 1
1.00025 1 1.00047 0.99978
0.999441 1.00062 1 0.998818
1.01905 1.02209 1 0.997032
1.00019 1 1.00088 0.999312
1.00099 1.00336 1.00004 0.997603
1.01052 1.01319 1 0.997358
1.0205 1.02388 1 0.996701
1.00109 1 1.00155 0.999548
0.999893 1 1 0.999889
1.00448 1 1.00587 0.998627
1.02152 1.02467 1 0.99693
1.01631 1.01917 1 0.997194
1.04257 1.0463 1 0.996436
0.999826 1.00143 1.0005 0.997898
1.02926 1.03269 1 0.996684
1.01212 1.01489 1.00047 0.996802
1.0285 1.03205 1 0.996561
0.999939 1 1 0.999939
1.00174 1.00043 1.00308 0.998231
1.00296 1 1.00393 0.999034
1.00459 1.00041 1.00625 0.99794
1.04687 1.05063 1 0.996417
1.03666 1.04024 1 0.996554
1.04595 1.04972 1 0.9964
1.00606 1.00845 1.00049 0.997145
1.03378 1.03731 1 0.996599
1.02378 1.02577 1.00158 0.996491
1.03607 1.03972 1 0.996488
0.999648 1 1 0.999648
0.999986 1 1 0.999986
1 1 1 1
1 1 1 1
1 1 1 1
1.0004 1 1.00066 0.999735
1 1 1 1
1.00152 1 1.00194 0.999579
1 1 1 1
0.999508 1.00085 1 0.99866
0.998645 1 1 0.99864
1.02162 1.02481 1 0.996887
1.01868 1.02189 1 0.996864
0.998615 1 1 0.998615
1 1 1 1
0.99861 1 1 0.99861
1.01622 1.01945 1 0.996834
1.02006 1.02324 1 0.996888
1.04998 1.05367 1 0.996498
1.02205 1.02524 1 0.996889
1.0522 1.0559 1 0.996488
1.01542 1.01865 1 0.996831
1.04901 1.05272 1 0.996474
1.05198 1.05567 1 0.996508
1.05449 1.06063 0.997395 0.996801
1.05118 1.05493 1 0.99645
1.05704 1.06124 0.999342 0.996698
0.99863 1 1 0.99863
0.998622 1 1 0.998622
1.01629 1.01949 1 0.996857
1.01882 1.02171 1 0.997175
1 1 1 1
0.999201 1 1 0.999201
1.01053 1.01286 1 0.997699
1.01843 1.02126 1 0.997221
1.04525 1.0489 1 0.996522
1.03959 1.0431 1 0.996639
1.0315 1.03503 1 0.99659
1.04081 1.04446 1 0.996503
1.00128 1 1.00186 0.99942
1.00439 1 1.00608 0.998329
1.01559 1.01881 1 0.996838
1.01726 1.02019 1 0.997127
1.04771 1.05142 0.99989 0.99658
1.0463 1.04996 0.999991 0.996526
1.00015 1 1.00089 0.999261
1.00409 1.00629 1.00009 0.997726
1.02477 1.02816 1 0.996703
1.04313 1.04669 1 0.996596
1.05167 1.0556 0.999583 0.996697
1.03863 1.04239 1 0.996394
1.04397 1.04755 1 0.996584
1.04161 1.04507 1 0.996693
1.00293 1.00047 1.00438 0.998089
1.00405 1.00048 1.00594 0.997637
1.00549 1 1.00688 0.998621
1.04735 1.051 1 0.996528
1.04764 1.05138 0.999856 0.996592
1.05434 1.05968 0.998223 0.996736
1.05273 1.05706 0.999207 0.996697
1.0471 1.05079 0.999821 0.996671
1.04645 1.05356 0.996245 0.99699
0.999846 1.00133 1.0006 0.99792
1.04352 1.04713 0.999721 0.996837
1.01279 1.01587 1 0.996972
1.03045 1.0343 1 0.996279
1.03772 1.04148 1 0.996385
1.03587 1.03907 0.999966 0.996954
1.00322 1 1.00432 0.998903
0.999717 1.00153 1.00067 0.997519
1.00866 1 1.01089 0.997798
1.00294 1.00291 1.00266 0.997371
1.02102 1.02416 1 0.996927
0.999907 1 1 0.999907
1.0012 1 1.00163 0.99957
1.00611 1 1.00749 0.998627
1.01547 1.01832 1 0.997197
1.04266 1.0464 1 0.996431
0.998929 1.00062 1.00041 0.997903
1.01198 1.0149 1.00033 0.996795
1.03047 1.03389 1 0.996687
1.02841 1.03196 1 0.996557
0.99995 1 1 0.99995
1.00251 1.00024 1.00405 0.998233
1.00264 1 1.0036 0.999043
1.00495 1.00024 1.00679 0.997933
1.04684 1.05061 1 0.996411
1.0368 1.04038 1 0.996552
1.04549 1.04927 1 0.996397
1.00456 1.00698 1.00045 0.997151
1.03342 1.03695 1 0.996597
1.02279 1.02463 1.00173 0.996479
1.03581 1.03937 1 0.99657
0.999972 1 1 0.999972
1.00066 1 1.00133 0.999332
1.00269 1.0032 1.00191 0.99758
1.00623 1 1.00794 0.998305
1.00211 1.00125 1.00322 0.997643
1.0508 1.05453 1 0.996463
1.03962 1.0433 1 0.996468
1.04096 1.04458 1 0.996534
1.00952 1.01079 1.00199 0.996759
1.03228 1.03579 1 0.996603
1.02063 1.02358 1.00086 0.996267
0.999599 1 1 0.999599
0.99907 1 1 0.99907
0.999686 1 1 0.999686
0.99965 1 1 0.99965
0.999993 1 1 0.999993
0.999988 1 1 0.999988
1 1 1 1
1 1 1 1
1 1 1 1
0.999896 1 1.00003 0.999867
1 1 1 1
1.00082 1 1.00111 0.999719
1 1 1 1
1.00147 1 1.0019 0.999565
1 1 1 1
1.02184 1.02504 1 0.996886
1.02056 1.02375 1 0.996887
1.05187 1.05558 1 0.996485
1.04904 1.05273 1 0.996496
1.01664 1.01987 1 0.996834
0.998609 1 1 0.998609
1.01551 1.01874 1 0.996831
1.04868 1.05239 1 0.996474
1.05124 1.05493 1 0.996506
1.05475 1.06121 0.997086 0.996818
1.05053 1.05428 1 0.996446
1.05691 1.06102 0.999431 0.996696
1.04757 1.05129 1 0.996466
1.05427 1.06096 0.996867 0.996823
1.05583 1.06125 0.998117 0.996769
1.05049 1.0594 0.994535 0.997036
1.05404 1.05765 1 0.996587
1.05155 1.06072 0.994292 0.997044
1.01551 1.01875 1 0.996822
1.01735 1.02029 1 0.997122
1.04749 1.0513 0.999767 0.996604
1.04639 1.05003 1 0.996532
0.999836 1 1.00059 0.99925
1.0056 1.00783 1.00006 0.997724
1.02461 1.02797 1 0.996734
1.04337 1.04695 1 0.996578
1.05161 1.05565 0.999431 0.99674
1.04378 1.04736 1 0.996589
1.03823 1.04201 1 0.996376
1.04181 1.04527 1 0.99669
1.0025 1.00068 1.00373 0.99809
1.00471 1.0008 1.00629 0.997639
1.00557 1 1.00696 0.998619
1.04741 1.05109 1 0.996506
1.04777 1.05147 0.999884 0.99659
1.0539 1.05948 0.997944 0.99678
1.0525 1.05691 0.999146 0.996678
1.00096 1.00228 1.00077 0.997917
1.01366 1.01674 1 0.996968
1.02915 1.03292 1.00003 0.996319
1.04725 1.05089 0.999895 0.996637
1.04615 1.05371 0.995776 0.99704
1.03841 1.04222 1 0.996347
1.04367 1.04727 0.999717 0.996839
1.03678 1.03993 0.999981 0.996989
1.00127 1.00258 1.00117 0.997519
1.00326 1.00316 1.00277 0.997337
1.00362 1 1.00473 0.9989
1.00803 1 1.01021 0.997838
1.05394 1.05966 0.997821 0.996773
1.0549 1.06 0.998453 0.996728
1.04583 1.05491 0.994429 0.996951
1.04521 1.05567 0.993007 0.997066
1.04488 1.04971 0.998418 0.996973
1.04315 1.05283 0.993568 0.997222
1.00354 1.00626 1 0.997288
1.03739 1.04282 0.997587 0.997201
1.01729 1.02083 1 0.996532
1.02809 1.03195 1.00018 0.996088
1.03918 1.04296 1 0.996373
1.03767 1.04077 1 0.997022
1.00033 1 1.0012 0.99914
1.00904 1 1.01097 0.998093
1.0021 1.00489 1 0.997222
1.0046 1.00065 1.00645 0.997512
1.00413 1.0047 1.00221 0.99723
0.999961 1 1 0.999961
1.04673 1.05051 1 0.996405
1.00173 1 1.00268 0.999052
1.00313 1.00016 1.00475 0.998234
1.00499 1.00005 1.00703 0.997927
1.03707 1.04066 1 0.99655
1.04508 1.04886 1 0.996394
1.00342 1.00577 1.00051 0.997158
1.02331 1.02496 1.00193 0.996467
1.03322 1.03675 1 0.996595
1.03624 1.03972 1 0.996652
0.999977 1 1 0.999977
1.00023 1 1.00089 0.999342
1.0012 1.00228 1.00134 0.997584
1.00731 1 1.00902 0.998303
1.00221 1.00096 1.00363 0.997624
1.05066 1.0544 1 0.996457
1.03949 1.04317 1 0.996466
1.041 1.04463 1 0.996522
1.01002 1.01115 1.00213 0.996762
1.03481 1.03834 1 0.996595
1.021 1.02382 1.00096 0.99629
0.999536 1 1.00003 0.999508
1.00257 1 1.00391 0.998671
1.0011 1.00339 1.00048 0.997234
1.00811 1.00103 1.00917 0.997932
1.00267 1.00307 1.00203 0.99758
1.04763 1.0512 0.999938 0.996667
1.0353 1.03889 1 0.996536
1.04053 1.04392 1 0.996746
1.00387 1.0035 1.00379 0.996585
1.01916 1.02301 1 0.996233
0.999602 1 1 0.999602
0.998988 1 1 0.998988
0.999044 1 1 0.999044
0.998789 1 1 0.998789
0.999095 1 1 0.999095
0.999708 1 1 0.999708
0.999688 1 1 0.999688
0.999997 1 1 0.999997
0.999652 1 1 0.999652
0.999994 1 1 0.999994
1 1 1 1
0.99999 1 1 0.99999
1 1 1 1
1 1 1 1
0.999956 1 1 0.999956
1.00021 1 1.00036 0.999847
1 1 1 1
1 1 1 1
1.00129 1 1.00159 0.999702
1 1 1 1
1.04995 1.0537 1 0.996441
1.05077 1.05446 1 0.996503
1.05707 1.06108 0.999521 0.996694
1.05507 1.06183 0.996788 0.996836
1.04825 1.05196 1 0.996474
1.01553 1.01876 1 0.996831
1.04762 1.05133 1 0.996467
1.05413 1.06075 0.996932 0.996817
1.05631 1.06167 0.998175 0.996769
1.04975 1.0592 0.993998 0.997066
1.05481 1.05843 1 0.996581
1.05173 1.06063 0.994527 0.997066
1.05418 1.06041 0.997327 0.996792
1.04839 1.05801 0.993876 0.997011
1.05065 1.06064 0.99345 0.997108
1.04982 1.06211 0.991212 0.997188
1.05215 1.05722 0.998313 0.996884
1.04934 1.06226 0.990538 0.997273
1.04739 1.05109 1 0.996483
1.04787 1.05153 0.999928 0.996587
1.05345 1.05926 0.997679 0.996824
1.05215 1.05665 0.999072 0.99666
1.00204 1.00319 1.00094 0.997915
1.01355 1.01664 1 0.996964
1.02733 1.0309 1.00018 0.99636
1.04738 1.05095 1 0.996603
1.04587 1.05382 0.995349 0.997089
1.04369 1.0473 0.999712 0.996841
1.03899 1.04284 1 0.996309
1.03691 1.04 1 0.997025
1.00273 1.00343 1.00179 0.99752
1.00332 1.00312 1.0029 0.997303
1.00399 1 1.0051 0.998896
1.00716 1 1.00931 0.997878
1.05384 1.05958 0.997806 0.996772
1.05441 1.05934 0.998637 0.996708
1.04599 1.05512 0.994353 0.996983
1.04606 1.05591 0.993598 0.997048
1.00427 1.00701 1 0.99728
1.01575 1.01921 1.00003 0.996574
1.02803 1.03168 1.00039 0.996077
1.04511 1.04959 0.998806 0.996923
1.04201 1.05205 0.993155 0.997279
1.03541 1.03919 1 0.996358
1.03827 1.04361 0.997675 0.997202
1.03847 1.04151 1 0.997082
1.00187 1.00467 1 0.997222
1.00371 1.00487 1.00162 0.997225
1.00578 1.00104 1.00724 0.997507
1.00089 1 1.00178 0.999104
1.00869 1 1.01057 0.998133
1.04687 1.05685 0.993543 0.996997
1.04693 1.05736 0.993092 0.997025
1.04273 1.05679 0.98941 0.997264
1.03855 1.04886 0.992863 0.997285
1.00698 1.01006 1 0.996948
1.04239 1.04793 0.997321 0.997378
1.00952 1.013 1.00029 0.996284
1.02387 1.02757 1.00051 0.99589
1.0319 1.03567 1 0.996359
0.999494 1 1.00017 0.999328
1.00544 1 1.00699 0.998465
1.0064 1 1.00858 0.997838
1.00309 1.00601 1 0.997098
1.0045 1.0009 1.0064 0.997217
1.00494 1.00592 1.00196 0.997072
0.999982 1 1 0.999982
0.999773 1 1.00042 0.999352
1.05051 1.05426 1 0.996451
1.00862 1 1.01034 0.998301
0.999377 1.00105 1.00074 0.997587
1.00228 1.00078 1.0039 0.997605
1.03917 1.04285 1 0.996464
1.041 1.04464 1 0.996511
1.00968 1.01064 1.00229 0.996765
1.02017 1.02315 1.00077 0.996314
1.03732 1.04087 1 0.996589
0.999514 1 1 0.999514
1.00276 1 1.00409 0.998676
1.00169 1.00406 1.00041 0.99723
1.00917 1.00079 1.01046 0.997925
1.00281 1.0035 1.00174 0.99758
1.04738 1.05092 0.999969 0.996661
1.03597 1.03958 1 0.996524
1.04062 1.04399 0.999996 0.996772
1.00482 1.00504 1.00324 0.996548
1.01788 1.0217 1.00006 0.996204
0.999448 1 1.00053 0.998919
1.00907 1 1.01085 0.998234
1.00283 1.00375 1.002 0.997094
1.00847 1.0035 1.00726 0.997703
1.00971 1.01129 1.001 0.997446
1.04471 1.05093 0.996912 0.997157
1.03581 1.03952 1 0.99643
1.03842 1.0418 1 0.996759
1.00695 1.0062 1.00433 0.996436
1.00832 1.01236 1 0.996014
0.999605 1 1 0.999605
0.999007 1 1 0.999007
0.998716 1 1 0.998716
0.999019 1 1 0.999019
0.999093 1 1 0.999093
0.998839 1 1.00008 0.998761
0.998787 1 1.00011 0.998678
0.999033 1 1.00033 0.9987
0.999117 1 1 0.999117
0.999702 1 1 0.999702
0.999708 1 1 0.999708
0.999999 1 1 0.999999
0.99969 1 1 0.99969
0.999998 1 1 0.999998
1 1 1 1
0.999996 1 1 0.999996
1 1 1 1
1 1 1 1
0.999992 1 1 0.999992
0.999939 1 1 0.999939
1 1 1 1
1.00063 1 1.00081 0.999827
1 1 1 1
1 1 1 1
1.05551 1.05914 1 0.996574
1.05652 1.06182 0.998229 0.996769
1.05186 1.06047 0.994781 0.997089
1.04896 1.05895 0.993451 0.997096
1.05401 1.06056 0.997 0.996812
1.04777 1.05149 1 0.996467
1.05411 1.0602 0.997475 0.996773
1.04896 1.05818 0.994261 0.997004
1.04989 1.06001 0.993341 0.997092
1.04866 1.06165 0.990542 0.9972
1.05179 1.0566 0.998555 0.996885
1.04727 1.06093 0.989783 0.997313
1.04903 1.05793 0.994589 0.996986
1.04991 1.06324 0.990257 0.997186
1.05004 1.06404 0.989533 0.997286
1.04439 1.05819 0.989589 0.997337
1.0538 1.05955 0.997792 0.996772
1.054 1.05877 0.998803 0.996688
1.04619 1.05535 0.994288 0.997015
1.047 1.05628 0.994171 0.997031
1.00565 1.0084 1 0.997272
1.01504 1.01848 1 0.996616
1.02803 1.03149 1.00058 0.996066
1.04535 1.04951 0.999156 0.996873
1.04079 1.05125 0.992697 0.997335
1.03947 1.04474 0.997746 0.997203
1.0326 1.03639 1 0.996343
1.04086 1.04385 1 0.997142
1.00168 1.00447 1 0.997221
1.00383 1.00594 1.00069 0.997219
1.00712 1.00115 1.00848 0.997501
1.0013 1 1.00223 0.999069
1.0084 1 1.01025 0.998174
1.0472 1.05714 0.993581 0.996999
1.0475 1.05799 0.993052 0.99702
1.04264 1.05601 0.990053 0.997255
1.00674 1.00983 1 0.996944
1.01012 1.01359 1.00026 0.996326
1.02236 1.02581 1.00076 0.995878
1.03901 1.04895 0.99323 0.997271
1.03527 1.03894 1 0.99647
1.03879 1.04459 0.997095 0.997345
0.999506 1 1.00014 0.999365
1.00335 1.00626 1.00002 0.997089
1.00298 1.0048 1.00099 0.997196
1.00687 1.00214 1.00754 0.997208
1.00673 1 1.00889 0.997863
1.00547 1 1.00705 0.99843
1.04827 1.06122 0.990703 0.997075
1.04641 1.06374 0.986478 0.997191
1.03646 1.05455 0.985458 0.997346
1.03642 1.05147 0.988164 0.997487
1.00661 1.00989 1 0.996751
1.03436 1.03823 0.999323 0.996944
1.0046 1.0071 1.00165 0.99588
1.01294 1.01623 1.00104 0.995728
0.999617 1 1 0.999617
1.00098 1 1.0022 0.998778
1.00551 1 1.0074 0.998125
1.00654 1 1.00916 0.997401
1.00321 1.00487 1.00142 0.996922
1.00804 1.00277 1.00838 0.996899
0.99952 1 1 0.99952
1.00296 1 1.00429 0.99868
1.04732 1.05084 1 0.996655
1.01004 1.00051 1.01163 0.997919
1.00234 1.00485 1.00027 0.997225
1.00237 1.00327 1.00152 0.997579
1.03682 1.04045 1 0.996512
1.04088 1.04423 0.999994 0.996797
1.00624 1.00702 1.00273 0.99651
1.01662 1.02025 1.00027 0.996175
0.999322 1 1.0004 0.998922
1.00927 1 1.01107 0.998223
1.00345 1.00438 1.00198 0.997103
1.00743 1.00308 1.00664 0.997709
1.0104 1.01243 1.00048 0.997518
1.04605 1.05238 0.996775 0.997204
1.03536 1.03905 1 0.996453
1.03973 1.04303 0.999996 0.996834
1.00705 1.00608 1.00458 0.996402
1.0085 1.01258 1.00003 0.995941
1.00032 1 1.00173 0.998595
1.00895 1.00013 1.01099 0.997851
1.00891 1.00813 1.00378 0.996996
1.00872 1.0098 1.00161 0.997331
1.04268 1.06702 0.979677 0.997458
1.03986 1.0445 0.998316 0.997231
1.02315 1.02713 1 0.996125
1.01121 1.01095 1.00426 0.996021
0.999025 1 1 0.999025
0.998728 1 1 0.998728
0.998682 1 1 0.998682
0.999092 1 1 0.999092
0.998851 1 1.00012 0.998732
0.999115 1 1 0.999115
0.998726 1 1.00004 0.998685
0.999087 1 1.00038 0.998711
0.998731 1 1 0.998731
0.999311 1 1.00076 0.99855
0.999149 1 1.00049 0.998663
0.999097 1 1 0.999097
0.999671 1 1 0.999671
0.9997 1 1 0.9997
1 1 1 1
0.999708 1 1 0.999708
1 1 1 1
1 1 1 1
0.999999 1 1 0.999999
1 1 1 1
1 1 1 1
1 1 1 1
0.999985 1 1 0.999985
1 1 1 1
0.999921 1 1 0.999921
1 1 1 1
1 1 1 1
1.05136 1.05591 0.9988 0.996887
1.04924 1.05951 0.993217 0.997077
1.0453 1.05969 0.989037 0.997352
1.04756 1.06125 0.989859 0.997211
1.04954 1.05837 0.994641 0.996997
1.05398 1.05994 0.997613 0.996754
1.04881 1.0578 0.994492 0.996986
1.04979 1.06291 0.990451 0.997176
1.04868 1.0632 0.989024 0.997285
1.0456 1.05908 0.989892 0.997347
1.05101 1.06324 0.991341 0.99713
1.05161 1.06985 0.985573 0.997338
1.05012 1.0696 0.984348 0.997404
1.0475 1.05741 0.993606 0.997001
1.04802 1.05854 0.99302 0.997016
1.04265 1.05523 0.9908 0.997247
1.00634 1.00943 1 0.996939
1.01006 1.01357 1.00018 0.996366
1.02048 1.02385 1.00085 0.995866
1.03953 1.04908 0.993619 0.997258
1.03464 1.0408 0.996762 0.997312
1.03725 1.04081 1 0.99658
1.00246 1.00506 1.00033 0.99708
0.998964 1.00165 1 0.997319
1.00834 1.00286 1.00829 0.9972
0.999539 1 1.00014 0.999402
1.00621 1 1.00834 0.997887
1.00571 1 1.00732 0.998395
1.04906 1.06174 0.990947 0.997083
1.04576 1.06346 0.986118 0.997197
1.03668 1.05421 0.986001 0.997338
1.00394 1.00722 1 0.996744
1.00463 1.0073 1.0014 0.995957
1.01313 1.01648 1.0009 0.995809
1.03666 1.05118 0.98867 0.99749