# vtk DataFile Version 2.0
Wound Healing Simulation
ASCII
DATASET UNSTRUCTURED_GRID
POINTS 3012 float
69.9759 18.75 4
67.2507 60.3285 4
69.976 18.75 2
73.0099 25.446 4
71.1327 20.9142 4
68.6801 16.6661 4
67.8276 19.9249 3.98744
67.2507 60.3286 2
71.1327 54.0858 4
68.6801 58.3339 4
65.6939 62.2254 4
65.3141 59.0039 3.98853
74.6784 42.3946 4
73.7221 47.2057 4
69.9759 18.75 0
73.0099 25.446 2
68.6801 16.6661 2
71.1327 20.9142 2
67.8282 19.9263 2
74.6792 32.6053 4
73.7222 27.7943 4
72.1454 23.1494 4
70.6157 26.2225 3.98597
68.8878 21.9583 3.98706
67.2507 14.6715 4
66.6391 17.9695 3.98803
65.803 21.0218 3.98212
67.2507 60.3285 0
71.1327 54.0858 2
68.6801 58.3339 2
65.694 62.2255 2
65.3145 59.0034 2
72.1454 51.8506 4
69.9759 56.25 4
68.8385 53.1129 3.98672
64.0165 64.0165 4
66.6128 57.1358 3.98822
63.8874 60.7688 3.98989
63.5053 57.7785 3.98385
60.3285 67.2507 4
74.6792 42.3947 2
73.7222 47.2057 2
74.9194 39.9526 4
74.2788 44.8158 4
72.169 42.0855 3.9843
73.0099 49.554 4
71.2507 46.5973 3.9858
73.0099 25.446 0
71.1327 20.9142 0
68.6801 16.6661 0
67.8276 19.9249 0.012558
74.6792 32.6053 2
73.7222 27.7943 2
67.2508 14.6715 2
72.1455 23.1494 2
70.6157 26.2232 2
66.6397 17.9702 2
68.8881 21.9599 2
65.8032 21.0212 2
74.9197 35.0474 4
74.2794 30.1841 4
72.1857 32.9434 3.98491
71.2795 28.4324 3.98586
69.8174 24.0609 3.98657
68.3506 26.952 3.97791
66.768 22.9317 3.98068
65.694 12.7746 4
65.3255 16.1003 3.98906
64.7196 19.189 3.98341
63.896 22.029 3.979
71.1327 54.0858 0
65.6939 62.2254 0
68.6801 58.3339 0
65.3141 59.0039 0.01147
72.1455 51.8506 2
69.9759 56.25 2
68.8388 53.1113 2
64.0165 64.0165 2
66.6133 57.1348 2
63.8877 60.7685 2
63.5054 57.7792 2
62.2254 65.694 4
58.8948 65.4159 3.99265
69.7709 50.9878 3.98629
67.786 55.1684 3.98763
66.655 52.211 3.98029
62.3374 62.4298 3.9913
64.6667 56.037 3.98379
62.2065 59.412 3.98434
61.8308 56.6915 3.98133
58.3339 68.6801 4
60.3285 67.2508 2
73.7221 47.2057 0
74.6784 42.3946 0
74.9197 39.9526 2
74.2794 44.8159 2
72.169 42.0857 2
73.0099 49.554 2
71.2507 46.5972 2
75 37.5 4
72.4059 39.8021 3.98344
71.7837 44.3525 3.98525
69.8066 41.7896 3.97658
70.5768 48.8123 3.98611
68.9162 46.0148 3.97766
74.6792 32.6053 0
73.7222 27.7943 0
67.2507 14.6715 0
72.1454 23.1494 0
70.6157 26.2225 0.0140298
68.8878 21.9583 0.012941
66.6391 17.9695 0.011966
65.803 21.0218 0.0178787
74.9197 35.0474 2
74.2794 30.1841 2
72.1857 32.9434 2
71.2796 28.4327 2
65.694 12.7745 2
65.326 16.1004 2
69.8176 24.0622 2
68.3505 26.9521 2
64.7199 19.188 2
66.7679 22.9315 2
63.8962 22.0283 2
72.4138 35.2242 3.98374
71.8051 30.6767 3.98572
69.8429 33.2687 3.97718
68.9698 29.0387 3.97787
67.6159 24.9119 3.97914
66.1997 27.6339 3.97479
64.0165 10.9835 4
64.7645 23.8263 3.97744
63.8915 14.324 3.99019
63.5182 17.439 3.98473
62.916 20.3113 3.98018
62.1039 22.9345 3.97731
60.6848 11.0953 3.99181
57.6132 11.4402 3.98689
72.1454 51.8506 0
69.9759 56.25 0
68.8385 53.1129 0.0132752
64.0165 64.0165 0
63.8874 60.7688 0.0101111
66.6128 57.1358 0.0117845
63.5053 57.7785 0.0161543
62.2255 65.694 2
58.895 65.416 2
69.771 50.9866 2
67.7865 55.1669 2
66.6549 52.2112 2
62.3377 62.4296 2
64.6669 56.0378 2
62.2065 59.4126 2
61.8309 56.6923 2
60.6696 63.9789 3.99204
57.0253 66.7367 3.99319
57.5588 63.697 3.9874
67.5123 50.1774 3.97889
65.7082 54.1769 3.98238
64.5458 51.3896 3.97666
60.7755 60.945 3.9853
62.8294 55.0769 3.98142
60.6641 58.1703 3.9814
60.3376 55.7985 3.98025
56.25 69.9759 4
58.3339 68.6801 2
60.3285 67.2507 0
58.9218 9.65364 3.99241
62.2254 9.30607 4
73.0099 49.554 0
74.2788 44.8158 0
71.2507 46.5973 0.0142026
72.169 42.0855 0.0156958
74.9194 39.9526 0
75 37.5 2
72.4059 39.8024 2
71.7837 44.3527 2
69.8067 41.7897 2
70.5769 48.8117 2
68.9161 46.0146 2
72.4892 37.512 3.98331
70.0427 39.6574 3.97517
69.4338 43.9074 3.97744
67.6012 41.4985 3.97333
68.2703 48.1073 3.97813
66.7155 45.4414 3.9747
74.9197 35.0474 0
74.2794 30.1841 0
72.1857 32.9434 0.0150919
71.2795 28.4324 0.0141399
65.694 12.7746 0
65.3255 16.1003 0.0109359
69.8174 24.0609 0.0134283
68.3506 26.952 0.0220944
66.768 22.9317 0.0193177
64.7196 19.189 0.0165882
63.896 22.029 0.0209977
72.4138 35.2241 2
71.8052 30.6767 2
69.843 33.2689 2
68.9699 29.0388 2
64.0165 10.9835 2
63.8918 14.3241 2
63.5184 17.4381 2
67.6158 24.9118 2
66.1997 27.6337 2
62.9164 20.3104 2
64.7646 23.8257 2
62.1042 22.9339 2
60.6851 11.0954 2
57.6133 11.4395 2
70.0597 35.3923 3.9758
69.4707 31.1498 3.97792
67.6599 33.5906 3.9739
66.7776 29.622 3.97473
65.5305 25.6974 3.97589
64.1524 28.2531 3.97382
62.3427 12.6523 3.9911
62.8664 24.6314 3.97587
62.2023 15.7765 3.98516
61.8214 18.6736 3.98171
61.2287 21.3303 3.97808
60.4381 23.7167 3.97673
59.2475 12.7715 3.98548
55.8751 10.2268 3.98834
56.4065 13.1027 3.98369
69.7709 50.9878 0.0137054
62.2254 65.694 0
58.8948 65.4159 0.00734761
67.786 55.1684 0.0123714
66.655 52.211 0.0197063
62.3374 62.4298 0.00870044
62.2065 59.412 0.0156648
64.6667 56.037 0.0162058
61.8308 56.6915 0.0186724
60.6698 63.979 2
57.0255 66.7367 2
57.5587 63.6977 2
67.5122 50.1774 2
65.7083 54.1775 2
64.5458 51.3902 2
60.7755 60.9458 2
62.8296 55.0778 2
60.6641 58.1711 2
60.3377 55.7993 2
55.0707 67.9336 3.99346
59.2208 62.3723 3.98597
55.8051 64.9144 3.98888
56.3285 62.098 3.98426
65.3388 49.4111 3.97548
63.7155 53.2991 3.97925
62.4515 50.6587 3.97481
59.3371 59.5673 3.98307
61.0884 54.3206 3.98043
59.2964 57.0257 3.97936
59.2528 55.197 3.98104
48.1032 68.5816 3.99025
50.9484 69.933 3.99388
54.0858 71.1327 4
56.25 69.976 2
58.3339 68.6801 0
57.0589 8.33352 3.99288
60.3285 7.74928 4
58.9221 9.6536 2
62.2255 9.30602 2
70.5768 48.8123 0.013893
71.7837 44.3525 0.0147512
68.9162 46.0148 0.0223382
69.8066 41.7896 0.0234174
72.4059 39.8021 0.0165581
75 37.5 0
72.4892 37.5122 2
70.0427 39.6574 2
69.4338 43.9074 2
67.6012 41.4986 2
68.2702 48.1072 2
66.7155 45.4416 2
70.1307 37.5217 3.9752
67.8366 39.5128 3.97191
67.2287 43.4712 3.9743
65.5607 41.212 3.97235
66.075 47.42 3.97513
64.6593 44.8517 3.97377
72.4138 35.2242 0.0162622
71.8051 30.6767 0.0142807
69.8429 33.2687 0.0228242
68.9698 29.0387 0.0221254
64.0165 10.9835 0
63.8915 14.324 0.0098095
63.5182 17.439 0.0152667
67.6159 24.9119 0.0208609
66.1997 27.6339 0.0252087
64.7645 23.8263 0.0225607
62.916 20.3113 0.0198234
62.1039 22.9345 0.0226936
60.6848 11.0953 0.00818665
57.6132 11.4402 0.0131149
70.0598 35.3925 2
69.4708 31.15 2
67.66 33.5906 2
66.7777 29.6219 2
62.3429 12.6525 2
62.2024 15.776 2
61.8218 18.6726 2
65.5305 25.6971 2
64.1525 28.2529 2
61.2292 21.3295 2
62.8665 24.6309 2
60.4384 23.7162 2
59.2475 12.7708 2
56.4065 13.1018 2
55.8751 10.2261 2
67.8733 35.5477 3.97267
67.2708 31.6216 3.97484
65.7033 33.9262 3.9727
64.6695 30.1898 3.97361
63.5456 26.4105 3.9744
62.2642 28.7739 3.97442
60.7772 14.216 3.98505
61.0554 25.3301 3.9751
60.6179 17.1165 3.98302
60.232 19.8031 3.97977
59.6734 22.2452 3.97664
58.9913 24.3077 3.97721
54.038 9.13045 3.98893
57.9121 14.3215 3.98339
54.7876 12.0018 3.98494
55.3141 14.6332 3.98234
67.5123 50.1774 0.0211116
57.0253 66.7367 0.0068105
60.6696 63.9789 0.00795917
57.5588 63.697 0.0125993
65.7082 54.1769 0.0176159
64.5458 51.3896 0.0233423
60.7755 60.945 0.0147024
60.6641 58.1703 0.0185989
62.8294 55.0769 0.0185841
60.3376 55.7985 0.0197465
55.071 67.9336 2
59.2208 62.3732 2
55.805 64.915 2
56.3284 62.0987 2
65.3387 49.4115 2
63.7156 53.3 2
62.4516 50.6593 2
59.3371 59.5682 2
61.0887 54.3214 2
59.2965 57.0263 2
59.253 55.1976 2
53.0426 69.0013 3.9937
53.9673 66.0164 3.9895
57.8831 60.8791 3.98363
54.6847 63.2142 3.98553
55.2134 60.6261 3.98264
63.2026 48.6661 3.97399
61.7531 52.5845 3.97771
60.2842 50.0284 3.9738
58.0231 58.2733 3.98085
59.3395 53.9606 3.97957
58.1352 55.8268 3.97737
50.1098 67.8597 3.99007
47.4638 66.586 3.98798
46.0569 69.1612 3.99046
48.1032 68.5821 2
48.8026 70.7243 3.99404
50.9487 69.9331 2
51.8506 72.1454 4
54.0858 71.1327 2
56.25 69.9759 0
55.1031 7.13812 3.99309
58.3339 6.31992 4
57.0592 8.33339 2
60.3286 7.74926 2
58.9218 9.65364 0.00759415
62.2254 9.30607 0
68.2703 48.1073 0.0218704
69.4338 43.9074 0.022565
66.7155 45.4414 0.0253032
67.6012 41.4985 0.0266735
70.0427 39.6574 0.0248325
72.4892 37.512 0.0166891
70.1307 37.5218 2
67.8367 39.5129 2
67.2288 43.4714 2
65.5608 41.2122 2
66.075 47.4202 2
64.6592 44.852 2
67.9329 37.5224 3.9719
65.7902 39.3715 3.97091
65.1823 43.0282 3.97331
63.7613 40.9327 3.97215
63.9733 46.7207 3.97402
62.8153 44.2215 3.97426
70.0597 35.3923 0.0241968
69.4707 31.1498 0.0220816
67.6599 33.5906 0.0261006
66.7776 29.622 0.0252709
62.3427 12.6523 0.00890247
62.2023 15.7765 0.014839
61.8214 18.6736 0.0182886
65.5305 25.6974 0.0241137
64.1524 28.2531 0.0261836
62.8664 24.6314 0.0241302
61.2287 21.3303 0.0219242
60.4381 23.7167 0.0232748
59.2475 12.7715 0.0145226
56.4065 13.1027 0.0163097
55.8751 10.2268 0.0116556
67.8734 35.5477 2
67.2709 31.6215 2
65.7034 33.9261 2
64.6696 30.1896 2
60.7772 14.2154 2
60.618 17.1156 2
60.2325 19.8022 2
63.5457 26.4102 2
62.2643 28.7737 2
59.674 22.2445 2
61.0557 25.3297 2
58.9917 24.3073 2
57.912 14.3208 2
55.314 14.6324 2
54.038 9.12983 2
54.7876 12.0009 2
65.88 35.6667 3.97154
65.1931 32.152 3.9736
64.2905 34.2489 3.9728
62.6027 30.6322 3.97331
61.6593 27.0672 3.97345
60.8581 29.1345 3.97529
59.3135 15.6583 3.98342
59.342 25.7863 3.97749
59.13 18.3421 3.98188
58.7505 20.8392 3.97775
58.2975 23.0778 3.97535
57.9811 24.6515 3.97756
52.1126 8.14918 3.98925
53.0584 11.0085 3.98595
56.6788 15.7298 3.98256
53.8106 13.6681 3.98327
54.3782 15.9842 3.98211
55.0707 67.9336 0.00653639
65.3388 49.4111 0.0245157
55.8051 64.9144 0.0111229
59.2208 62.3723 0.0140336
56.3285 62.098 0.0157432
63.7155 53.2991 0.020746
62.4515 50.6587 0.0251903
59.3371 59.5673 0.016928
59.2964 57.0257 0.0206429
61.0884 54.3206 0.0195703
59.2528 55.197 0.0189574
53.0428 69.0014 2
53.9672 66.0169 2
57.883 60.8798 2
54.6845 63.2149 2
55.2133 60.6269 2
63.2027 48.6665 2
61.7534 52.5853 2
60.2844 50.029 2
58.0232 58.2742 2
59.3397 53.9613 2
58.1354 55.8274 2
52.0708 67.0028 3.98986
52.9538 64.2243 3.98665
56.6515 59.4997 3.98232
53.6823 61.6312 3.98374
[...]
POINT_DATA 3012
SCALARS Jp_lamdaP float 4
LOOKUP_TABLE default
1 1 1 1
1 1 1 1
1 1 1 1
0.999992 1 1 0.999992
0.999999 1 1 0.999999
1 1 1 1
0.999902 1 1 0.999902
1 1 1 1
1 1 1 1
1 1 1 1
1 1 1 1
0.999973 1 1 0.999973
0.99998 1 1 0.99998
0.999994 1 1 0.999994
1 1 1 1
0.999994 1 1 0.999994
1 1 1 1
1 1 1 1
0.999903 1 1 0.999903
1 1 1 1
0.99999 1 1 0.99999
0.999997 1 1 0.999997
0.99983 1 1 0.99983
0.999882 1 1 0.999882
1 1 1 1
0.999924 1 1 0.999924
0.999718 1 1 0.999718
1 1 1 1
0.999999 1 1 0.999999
1 1 1 1
1 1 1 1
0.999977 1 1 0.999977
0.999997 1 1 0.999997
1 1 1 1
0.999924 1 1 0.999924
1 1 1 1
0.999962 1 1 0.999962
0.999986 1 1 0.999986
0.999761 1 1 0.999761
1 1 1 1
1 1 1 1
0.999996 1 1 0.999996
1 1 1 1
0.99999 1 1 0.99999
0.999829 1 1 0.999829
1 1 1 1
0.999885 1 1 0.999885
0.999995 1 1 0.999995
1 1 1 1
1 1 1 1
0.999904 1 1 0.999904
0.999991 1 1 0.999991
0.999991 1 1 0.999991
1 1 1 1
0.999998 1 1 0.999998
0.999831 1 1 0.999831
0.999925 1 1 0.999925
0.999883 1 1 0.999883
0.999711 1 1 0.999711
1 1 1 1
0.999986 1 1 0.999986
0.999851 1 1 0.999851
0.999814 1 1 0.999814
0.999857 1 1 0.999857
0.999545 1 1 0.999545
0.999647 1 1 0.999647
1 1 1 1
0.999951 1 1 0.999951
0.999768 1 1 0.999768
0.999485 1 1 0.999485
1 1 1 1
1 1 1 1
1 1 1 1
0.99998 1 1 0.99998
1 1 1 1
1 1 1 1
0.999929 1 1 0.999929
1 1 1 1
0.999965 1 1 0.999965
0.99999 1 1 0.99999
0.99976 1 1 0.99976
1 1 1 1
1 1 1 1
0.999905 1 1 0.999905
0.999944 1 1 0.999944
0.999616 1 1 0.999616
0.999997 1 1 0.999997
0.999738 1 1 0.999738
0.999784 1 1 0.999784
0.999593 1 1 0.999593
1 1 1 1
1 1 1 1
1 1 1 1
1 1 1 1
1 1 1 1
0.999993 1 1 0.999993
0.999841 1 1 0.999841
0.999998 1 1 0.999998
0.999886 1 1 0.999886
1 1 1 1
0.999804 1 1 0.999804
0.999868 1 1 0.999868
0.999402 1 1 0.999402
0.999897 1 1 0.999897
0.999468 1 1 0.999468
0.999983 1 1 0.999983
0.999992 1 1 0.999992
1 1 1 1
0.999998 1 1 0.999998
0.999833 1 1 0.999833
0.999885 1 1 0.999885
0.999926 1 1 0.999926
0.999705 1 1 0.999705
1 1 1 1
0.999988 1 1 0.999988
0.999813 1 1 0.999813
0.999815 1 1 0.999815
1 1 1 1
0.999966 1 1 0.999966
0.999859 1 1 0.999859
0.99953 1 1 0.99953
0.999761 1 1 0.999761
0.999657 1 1 0.999657
0.999486 1 1 0.999486
0.999815 1 1 0.999815
0.999809 1 1 0.999809
0.999443 1 1 0.999443
0.999489 1 1 0.999489
0.999581 1 1 0.999581
0.999315 1 1 0.999315
1 1 1 1
0.999445 1 1 0.999445
0.999996 1 1 0.999996
0.999781 1 1 0.999781
0.999525 1 1 0.999525
0.999392 1 1 0.999392
1 1 1 1
0.999861 1 1 0.999861
1 1 1 1
1 1 1 1
0.999934 1 1 0.999934
1 1 1 1
0.999994 1 1 0.999994
0.999968 1 1 0.999968
0.999759 1 1 0.999759
1 1 1 1
1 1 1 1
0.99991 1 1 0.99991
0.99995 1 1 0.99995
0.999618 1 1 0.999618
0.999998 1 1 0.999998
0.999739 1 1 0.999739
0.999784 1 1 0.999784
0.999587 1 1 0.999587
1 1 1 1
1 1 1 1
0.999876 1 1 0.999876
0.999552 1 1 0.999552
0.999688 1 1 0.999688
0.99942 1 1 0.99942
0.999817 1 1 0.999817
0.999567 1 1 0.999567
0.999606 1 1 0.999606
0.99952 1 1 0.99952
1 1 1 1
1 1 1 1
1 1 1 1
1 1 1 1
1 1 1 1
1 1 1 1
1 1 1 1
0.999886 1 1 0.999886
0.999839 1 1 0.999839
1 1 1 1
1 1 1 1
0.999806 1 1 0.999806
0.999869 1 1 0.999869
0.999402 1 1 0.999402
0.999897 1 1 0.999897
0.999469 1 1 0.999469
0.999796 1 1 0.999796
0.999361 1 1 0.999361
0.99944 1 1 0.99944
0.99921 1 1 0.99921
0.999503 1 1 0.999503
0.999283 1 1 0.999283
1 1 1 1
0.99999 1 1 0.99999
0.999774 1 1 0.999774
0.999816 1 1 0.999816
1 1 1 1
0.999982 1 1 0.999982
0.999861 1 1 0.999861
0.999515 1 1 0.999515
0.999666 1 1 0.999666
0.999753 1 1 0.999753
0.999487 1 1 0.999487
0.999812 1 1 0.999812
0.999809 1 1 0.999809
0.999414 1 1 0.999414
0.999499 1 1 0.999499
1 1 1 1
0.999993 1 1 0.999993
0.999794 1 1 0.999794
0.999583 1 1 0.999583
0.999297 1 1 0.999297
0.999522 1 1 0.999522
0.999453 1 1 0.999453
0.999393 1 1 0.999393
1 1 1 1
0.999861 1 1 0.999861
0.999369 1 1 0.999369
0.999473 1 1 0.999473
0.999239 1 1 0.999239
0.999244 1 1 0.999244
0.999395 1 1 0.999395
0.99923 1 1 0.99923
1 1 1 1
0.999356 1 1 0.999356
0.999802 1 1 0.999802
0.999577 1 1 0.999577
0.999429 1 1 0.999429
0.999364 1 1 0.999364
0.999829 1 1 0.999829
0.999905 1 1 0.999905
0.999648 1 1 0.999648
0.999913 1 1 0.999913
1 1 1 1
1 1 1 1
0.999955 1 1 0.999955
0.999619 1 1 0.999619
1 1 1 1
0.999784 1 1 0.999784
0.999739 1 1 0.999739
0.999582 1 1 0.999582
1 1 1 1
1 1 1 1
0.999876 1 1 0.999876
0.999552 1 1 0.999552
0.99969 1 1 0.99969
0.999421 1 1 0.999421
0.999817 1 1 0.999817
0.999573 1 1 0.999573
0.999605 1 1 0.999605
0.999512 1 1 0.999512
1 1 1 1
0.999845 1 1 0.999845
0.999912 1 1 0.999912
0.999678 1 1 0.999678
0.999356 1 1 0.999356
0.999509 1 1 0.999509
0.999323 1 1 0.999323
0.999636 1 1 0.999636
0.999495 1 1 0.999495
0.999496 1 1 0.999496
0.999458 1 1 0.999458
0.999978 1 1 0.999978
1 1 1 1
1 1 1 1
1 1 1 1
1 1 1 1
1 1 1 1
1 1 1 1
1 1 1 1
1 1 1 1
0.999899 1 1 0.999899
0.999868 1 1 0.999868
0.999469 1 1 0.999469
0.999402 1 1 0.999402
0.999808 1 1 0.999808
1 1 1 1
0.999795 1 1 0.999795
0.999361 1 1 0.999361
0.99944 1 1 0.99944
0.999209 1 1 0.999209
0.999504 1 1 0.999504
0.999283 1 1 0.999283
0.999349 1 1 0.999349
0.999167 1 1 0.999167
0.999249 1 1 0.999249
0.999153 1 1 0.999153
0.999316 1 1 0.999316
0.999219 1 1 0.999219
0.99981 1 1 0.99981
0.999809 1 1 0.999809
0.999385 1 1 0.999385
0.999509 1 1 0.999509
1 1 1 1
0.999991 1 1 0.999991
0.999806 1 1 0.999806
0.999584 1 1 0.999584
0.99928 1 1 0.99928
0.99946 1 1 0.99946
0.999519 1 1 0.999519
0.999395 1 1 0.999395
1 1 1 1
0.999861 1 1 0.999861
0.999359 1 1 0.999359
0.999473 1 1 0.999473
0.999232 1 1 0.999232
0.999262 1 1 0.999262
0.999999 1 1 0.999999
0.999802 1 1 0.999802
0.999589 1 1 0.999589
0.999394 1 1 0.999394
0.999226 1 1 0.999226
0.999416 1 1 0.999416
0.999356 1 1 0.999356
0.999363 1 1 0.999363
0.999829 1 1 0.999829
0.999644 1 1 0.999644
0.999904 1 1 0.999904
0.999205 1 1 0.999205
0.999251 1 1 0.999251
0.999141 1 1 0.999141
0.999177 1 1 0.999177
0.999303 1 1 0.999303
0.999232 1 1 0.999232
0.999814 1 1 0.999814
0.999338 1 1 0.999338
0.999637 1 1 0.999637
0.999465 1 1 0.999465
0.999348 1 1 0.999348
0.99939 1 1 0.99939
0.999944 1 1 0.999944
0.999648 1 1 0.999648
0.999655 1 1 0.999655
0.999565 1 1 0.999565
0.999553 1 1 0.999553
1 1 1 1
1 1 1 1
0.999876 1 1 0.999876
0.999692 1 1 0.999692
0.999421 1 1 0.999421
0.999817 1 1 0.999817
0.999604 1 1 0.999604
0.999579 1 1 0.999579
0.999505 1 1 0.999505
1 1 1 1
0.999845 1 1 0.999845
0.999913 1 1 0.999913
0.999676 1 1 0.999676
0.999355 1 1 0.999355
0.99951 1 1 0.99951
0.999323 1 1 0.999323
0.999637 1 1 0.999637
0.999502 1 1 0.999502
0.999493 1 1 0.999493
0.999476 1 1 0.999476
1 1 1 1
0.99994 1 1 0.99994
0.99966 1 1 0.99966
0.999706 1 1 0.999706
0.999563 1 1 0.999563
0.99927 1 1 0.99927
0.999419 1 1 0.999419
0.999288 1 1 0.999288
0.999517 1 1 0.999517
0.999448 1 1 0.999448
0.999379 1 1 0.999379
0.999969 1 1 0.999969
0.999823 1 1 0.999823
0.999985 1 1 0.999985
0.99998 1 1 0.99998
1 1 1 1
1 1 1 1
1 1 1 1
1 1 1 1
1 1 1 1
1 1 1 1
1 1 1 1
1 1 1 1
1 1 1 1
1 1 1 1
1 1 1 1
0.999504 1 1 0.999504
0.99944 1 1 0.99944
0.999283 1 1 0.999283
0.999209 1 1 0.999209
0.999361 1 1 0.999361
0.999795 1 1 0.999795
0.999349 1 1 0.999349
0.999167 1 1 0.999167
0.999249 1 1 0.999249
0.999149 1 1 0.999149
0.999315 1 1 0.999315
0.999219 1 1 0.999219
0.999153 1 1 0.999153
0.999119 1.00001 1 0.999112
0.999183 1 1 0.999183
0.99914 1 1 0.99914
0.999246 1 1 0.999246
0.999243 1 1 0.999243
0.999349 1 1 0.999349
0.999473 1 1 0.999473
0.999225 1 1 0.999225
0.999281 1 1 0.999281
0.999998 1 1 0.999998
0.999802 1 1 0.999802
0.999601 1 1 0.999601
0.999394 1 1 0.999394
0.999222 1 1 0.999222
0.999356 1 1 0.999356
0.999403 1 1 0.999403
0.999362 1 1 0.999362
0.99983 1 1 0.99983
0.999641 1 1 0.999641
0.999904 1 1 0.999904
0.99919 1 1 0.99919
0.99925 1 1 0.99925
0.999133 1 1 0.999133
0.99918 1 1 0.99918
0.999814 1 1 0.999814
0.999636 1 1 0.999636
0.999479 1 1 0.999479
0.999308 1 1 0.999308
0.999238 1 1 0.999238
0.999337 1 1 0.999337
0.999339 1 1 0.999339
0.999395 1 1 0.999395
0.999649 1 1 0.999649
0.999556 1 1 0.999556
0.999941 1 1 0.999941
0.999661 1 1 0.999661
0.999104 1 1 0.999104
0.999153 1 1 0.999153
0.999095 1 1 0.999095
0.999166 1 1 0.999166
0.999301 1 1 0.999301
0.999259 1 1 0.999259
0.999651 1 1 0.999651
0.999394 1 1 0.999394
0.999536 1 1 0.999536
0.999374 1 1 0.999374
0.999292 1 1 0.999292
0.999393 1 1 0.999393
0.999962 1 1 0.999962
0.999699 1 1 0.999699
0.999569 1 1 0.999569
0.999552 1 1 0.999552
0.999524 1 1 0.999524
1 1 1 1
0.999354 1 1 0.999354
0.999914 1 1 0.999914
0.999845 1 1 0.999845
0.999675 1 1 0.999675
0.999511 1 1 0.999511
0.999323 1 1 0.999323
0.999637 1 1 0.999637
0.999489 1 1 0.999489
0.99951 1 1 0.99951
0.999495 1 1 0.999495
1 1 1 1
0.999942 1 1 0.999942
0.99966 1 1 0.99966
0.999705 1 1 0.999705
0.999559 1 1 0.999559
0.999268 1 1 0.999268
0.999419 1 1 0.999419
0.999284 1 1 0.999284
0.999518 1 1 0.999518
0.999453 1 1 0.999453
0.999388 1 1 0.999388
0.999957 1 1 0.999957
0.99974 1 1 0.99974
0.999544 1 1 0.999544
0.999581 1 1 0.999581
0.999506 1 1 0.999506
0.999249 1 1 0.999249
0.999375 1 1 0.999375
0.999333 1 1 0.999333
0.999409 1 1 0.999409
0.999322 1 1 0.999322
0.999972 1 1 0.999972
0.999778 1 1 0.999778
0.999812 1 1 0.999812
0.999705 1 1 0.999705
0.999834 1 1 0.999834
0.99999 1 1 0.99999
0.999987 1 1 0.999987
1 1 1 1
0.999983 1 1 0.999983
1 1 1 1
1 1 1 1
1 1 1 1
1 1 1 1
1 1 1 1
1 1 1 1
1 1 1 1
1 1 1 1
1 1 1 1
1 1 1 1
1 1 1 1
0.999315 1 1 0.999315
0.999249 1 1 0.999249
0.99922 1 1 0.99922
0.999146 1 1 0.999146
0.999168 1 1 0.999168
0.999349 1 1 0.999349
0.999154 1 1 0.999154
0.99911 1 1 0.999106
0.999184 1 1 0.999184
0.999139 1 1 0.999139
0.999245 1 1 0.999245
0.999242 1 1 0.999242
0.999095 1.00001 1 0.999086
0.999412 1.00032 1 0.999096
0.99918 1 1 0.99918
0.99913 1 1 0.99913
0.999251 1 1 0.999251
0.999263 1 1 0.999263
0.999175 1 1 0.999175
0.99925 1 1 0.99925
0.999125 1 1 0.999125
0.999184 1 1 0.999184
0.999815 1 1 0.999815
0.999635 1 1 0.999635
0.999492 1 1 0.999492
0.999314 1 1 0.999314
0.999245 1 1 0.999245
0.999339 1 1 0.999339
0.999327 1 1 0.999327
0.9994 1 1 0.9994
0.999651 1 1 0.999651
0.999546 1 1 0.999546
0.999938 1 1 0.999938
0.999667 1 1 0.999667
0.999105 1 1 0.999105
0.999156 1 1 0.999156
0.999095 1 1 0.999095
0.999168 1 1 0.999168
0.999652 1 1 0.999652
0.999547 1 1 0.999547
0.999373 1 1 0.999373
0.999297 1 1 0.999297
0.999285 1 1 0.999285
0.999287 1 1 0.999287
0.999396 1 1 0.999396
0.99941 1 1 0.99941
0.99957 1 1 0.99957
0.999521 1 1 0.999521
0.99955 1 1 0.99955
0.999945 1 1 0.999945
0.999705 1 1 0.999705
0.99912 1.00005 1 0.999069
0.999087 1 1 0.999087
0.999185 1 1 0.999185
0.999339 1 1 0.999339
0.999578 1 1 0.999578
0.999446 1 1 0.999446
0.999466 1 1 0.999466
0.999254 1 1 0.999254
0.999243 1 1 0.999243
0.999946 1 1 0.999946
0.999768 1 1 0.999768
0.999589 1 1 0.999589
0.999542 1 1 0.999542
0.999472 1 1 0.999472
0.999491 1 1 0.999491
1 1 1 1
0.999944 1 1 0.999944
0.999267 1 1 0.999267
0.999705 1 1 0.999705
0.999659 1 1 0.999659
0.999555 1 1 0.999555
0.99942 1 1 0.99942
0.999281 1 1 0.999281
0.99952 1 1 0.99952
0.999397 1 1 0.999397
0.999458 1 1 0.999458
0.99996 1 1 0.99996
0.99974 1 1 0.99974
0.99955 1 1 0.99955
0.99958 1 1 0.99958
0.999498 1 1 0.999498
0.999247 1 1 0.999247
0.999372 1 1 0.999372
0.999338 1 1 0.999338
0.999402 1 1 0.999402
0.999306 1 1 0.999306
0.99977 1 1 0.99977
0.999589 1 1 0.999589
0.999465 1 1 0.999465
0.999487 1 1 0.999487
0.99945 1 1 0.99945
0.999365 1 1 0.999365
0.999294 1 1 0.999294
0.999322 1 1 0.999322
0.999448 1 1.00012 0.999329
0.999178 1 1 0.999178
0.999974 1 1 0.999974
0.999787 1 1 0.999787
0.999645 1 1 0.999645
0.9998 1 1 0.9998
0.999834 1 1 0.999834
0.999688 1 1 0.999688
0.999599 1 1 0.999599
0.999684 1 1 0.999684
0.999844 1 1 0.999844
0.999992 1 1 0.999992
0.999991 1 1 0.999991
1 1 1 1
0.999988 1 1 0.999988
1 1 1 1
1 1 1 1
1 1 1 1
1 1 1 1
1 1 1 1
1 1 1 1
1 1 1 1
1 1 1 1
1 1 1 1
1 1 1 1
1 1 1 1
0.999243 1 1 0.999243
0.999185 1 1 0.999185
0.999242 1 1 0.999242
0.999137 1 1 0.999137
0.999102 1 1 0.9991
0.999154 1 1 0.999154
0.999093 1.00001 1 0.999084
0.999317 1.00022 1 0.999098
0.999174 1 1 0.999174
0.999126 1 1 0.999125
0.999252 1 1 0.999252
0.999278 1 1 0.999278
0.99971 1.00064 1 0.999071
0.999612 1.0005 1 0.999108
0.999206 1.00003 1 0.999177
0.999327 1 1 0.999327
0.999107 1 1 0.999105
0.999158 1 1 0.999158
0.999095 1 1 0.999095
0.999169 1 1 0.999169
0.999652 1 1 0.999652
0.999558 1 1 0.999558
0.999372 1 1 0.999372
0.999292 1 1 0.999292
0.999311 1 1 0.999311
0.999397 1 1 0.999397
0.999281 1 1 0.999281
0.999427 1 1 0.999427
0.99957 1 1 0.99957
0.999518 1 1 0.999518
0.999547 1 1 0.999547
0.999928 1 1 0.999928
0.999711 1 1 0.999711
0.999117 1.00005 1 0.999071
0.999093 1 1 0.999092
0.999211 1.00002 1 0.999195
0.999577 1 1 0.999577
0.99948 1 1 0.99948
0.999251 1 1 0.999251
0.999329 1 1 0.999329
0.999268 1 1 0.999268
0.999444 1 1 0.999444
0.999946 1 1 0.999946
0.999541 1 1 0.999541
0.999499 1 1 0.999499
0.999471 1 1 0.999471
0.999594 1 1 0.999594
0.999755 1 1 0.999755
0.999247 1.00018 1 0.999066
0.999085 1.00001 1 0.999077
0.99931 1.00008 1 0.999234
0.999457 1.00005 1 0.999403
0.999534 1 1 0.999534
0.999311 1 1 0.999311
0.999336 1 1 0.999336
0.999237 1 1.00008 0.99916
0.999959 1 1 0.999959
0.999803 1 1 0.999803
0.999635 1 1 0.999635
0.999466 1 1 0.999466
0.999502 1 1 0.999502
0.99944 1 1 0.99944
0.999962 1 1 0.999962
0.999739 1 1 0.999739
0.999246 1 1 0.999246
0.999579 1 1 0.999579
0.999557 1 1 0.999557
0.99949 1 1 0.99949
0.999369 1 1 0.999369
0.999343 1 1 0.999343
0.999396 1 1 0.999396
0.99929 1 1 0.99929
0.999771 1 1 0.999771
0.999593 1 1 0.999593
0.999476 1 1 0.999476
0.999493 1 1 0.999493
0.999454 1 1 0.999454
0.999364 1 1 0.999364
0.999298 1 1 0.999298
0.999365 1 1 0.999365
0.999411 1 1.00009 0.99932
0.999159 1 1 0.999158
0.99962 1 1 0.99962
0.99948 1 1 0.99948
0.99948 1 1.00009 0.999391
0.999408 1 1 0.999408
0.999599 1.00026 1 0.999336
1.00003 1.00076 0.999872 0.999398
0.999162 1 1 0.999162
1.00078 1 1.00164 0.999147
0.999795 1 1 0.999795
0.999653 1 1 0.999653
0.999563 1 1 0.999563
0.999834 1 1 0.999834
0.999671 1 1 0.999671
0.999844 1 1 0.999844
0.999587 1 1 0.999587
0.99969 1 1 0.99969
0.999516 1 1 0.999516
0.999586 1 1 0.999586
0.999693 1 1 0.999693
0.999849 1 1 0.999849
0.999992 1 1 0.999992
0.999992 1 1 0.999992
1 1 1 1
0.999991 1 1 0.999991
1 1 1 1
1 1 1 1
1 1 1 1
1 1 1 1
1 1 1 1
1 1 1 1
1 1 1 1
1 1 1 1
1 1 1 1
1 1 1 1
1 1 1 1
0.999252 1 1 0.999252
0.999168 1 1 0.999168
0.999293 1 1 0.999293
0.99912 1 1 0.99912
0.999203 1.0001 1 0.9991
0.999089 1.00001 1 0.999081
0.999595 1.00052 1 0.999075
0.999585 1.00048 1 0.999107
0.999235 1.00005 1 0.999184
0.999322 1 1 0.999322
1.00004 1.00095 1 0.999088
0.999963 1.00082 1 0.999148
0.999383 1.00014 1 0.999246
0.999112 1.00004 1 0.999073
0.999097 1 1 0.999097
0.999244 1.00004 1 0.999205
0.999576 1 1 0.999576
0.999494 1 1 0.999494
0.999248 1 1 0.999248
0.999319 1 1 0.999319
0.999441 1 1 0.999441
0.999294 1 1 0.999294
0.99954 1 1 0.99954
0.999507 1 1 0.999507
0.999471 1 1 0.999471
0.999946 1 1 0.999946
0.9996 1 1 0.9996
0.999743 1 1 0.999743
0.999336 1.00027 1 0.999069
0.999085 1.00001 1 0.999074
0.999274 1.00005 1 0.999221
0.999531 1 1 0.999531
0.999358 1 1 0.999358
0.999253 1 1.00009 0.999165
0.999851 1.00044 1 0.999413
0.999309 1 1 0.999309
0.999972 1 1 0.999972
0.999803 1 1 0.999803
0.999501 1 1 0.999501
0.999447 1 1 0.999447
0.999471 1 1 0.999471
0.999625 1 1 0.999625
0.999547 1.00046 1 0.999091
0.999537 1.00044 1 0.999093
1.00047 1.00121 0.999905 0.999352
1.00063 1.0012 1 0.999424
0.999465 1 1 0.999465
1.00038 1 1.00127 0.999107
0.999406 1 1.00016 0.999241
0.999995 1 1 0.999995
0.999872 1 1 0.999872
0.999806 1 1 0.999806
0.999648 1 1 0.999648
0.999508 1 1 0.999508
0.999385 1 1 0.999385
0.999484 1 1 0.999484
0.999422 1 1 0.999422
0.999771 1 1 0.999771
0.999598 1 1 0.999598
0.999363 1 1 0.999363
0.999498 1 1 0.999498
0.999486 1 1 0.999486
0.999458 1 1 0.999458
0.999303 1 1 0.999303
0.999407 1 1 0.999407
0.9994 1 1.00009 0.999311
0.999138 1 1 0.999138
0.999616 1 1 0.999616
0.999489 1 1 0.999489
0.999504 1 1.0001 0.9994
0.999415 1 1 0.999415
0.999556 1.00023 1 0.999328
0.999793 1.00045 0.999949 0.999396
0.999182 1 1 0.999182
1.00039 1 1.00125 0.999137
0.999532 1 1 0.999532
0.99953 1.00028 1 0.999251
0.999413 1 1 0.999413
0.999602 1 1.0003 0.999305
1.0017 1.0026 0.999722 0.999378
0.999809 1.00066 1 0.999146
1.00148 1 1.00242 0.999062
0.999661 1 1 0.999661
0.999563 1 1 0.999563
0.999487 1 1 0.999487
0.999844 1 1 0.999844
0.999696 1 1 0.999696
0.999574 1 1 0.999574
0.999849 1 1 0.999849
0.999693 1 1 0.999693
0.999506 1 1 0.999506
0.999599 1 1 0.999599
0.999455 1 1 0.999455
0.999503 1 1 0.999503
0.99961 1 1 0.99961
0.999712 1 1 0.999712
0.999848 1 1 0.999848
0.999991 1 1 0.999991
0.999992 1 1 0.999992
1 1 1 1
0.999992 1 1 0.999992
1 1 1 1
1 1 1 1
1 1 1 1
1 1 1 1
1 1 1 1
0.999999 1 1 0.999999
1 1 1 1
1 1 1 1
1 1 1 1
1 1 1 1
1 1 1 1
1 1 1 1
0.999317 1 1 0.999317
0.999273 1.00008 1 0.99919
0.999577 1.00047 1 0.999107
0.999498 1.00042 1 0.999079
1.00011 1.00102 1 0.999093
1.00004 1.0009 1 0.99914
0.999429 1.00017 1 0.99926
1.00021 1.00108 1 0.999131
1.00002 1.00084 1 0.999179
0.999626 1.00035 1 0.999274
0.999428 1.00036 1 0.999071
0.999086 1.00001 1 0.999072
0.999241 1.00003 1 0.999208
0.999529 1 1 0.999529
0.999379 1 1 0.999379
0.999177 1 1.00001 0.99917
1.00022 1.0008 1 0.999424
0.999307 1 1 0.999307
0.9995 1 1 0.9995
0.999453 1 1 0.999453
0.999476 1 1 0.999476
0.999984 1 1 0.999984
0.999804 1 1 0.999804
0.999616 1 1 0.999616
0.999491 1.0004 1 0.999095
0.999992 1 1 0.999992
0.999864 1 1 0.999864
0.999609 1.00052 1 0.999093
1.00079 1.00147 1 0.99933
0.999477 1 1 0.999477
0.999833 1 1.00061 0.99922
0.999716 1 1.0006 0.999114
1.00023 1.00081 1 0.999423
0.99983 1 1 0.99983
0.999648 1 1 0.999648
0.999479 1 1 0.999479
0.99946 1 1.00001 0.999449
0.999371 1 1 0.999371
0.99951 1 1 0.99951
1.00014 1.00101 1 0.999131
1.00119 1.00202 1 0.999174
1.00216 1.00307 0.999601 0.999489
0.999229 1 1 0.999229
0.999856 1 1.00043 0.999423
1.00221 1 1.00313 0.999085
0.999873 1 1 0.999873
0.999851 1 1 0.999851
0.999753 1 1 0.999753
0.999654 1 1 0.999654
0.999546 1 1 0.999546
0.999407 1 1 0.999407
0.999326 1 1.00002 0.999309
0.999454 1 1 0.999454
0.999611 1 1 0.999611
0.999497 1 1 0.999497
0.999562 1.00024 1 0.99932
0.999547 1.00015 1 0.999394
0.999423 1 1 0.999423
0.999503 1 1.00009 0.999409
0.999203 1 1 0.999202
1.00004 1 1.00092 0.999128
0.999532 1 1 0.999532
0.999511 1.00024 1 0.999267
0.999413 1 1 0.999413
0.999805 1 1.00051 0.999291
1.00099 1.00188 0.99974 0.99937
1.00011 1.00096 1 0.999152
1.00142 1 1.00235 0.999063
0.999443 1 1 0.999443
1.00854 1.00987 0.999367 0.999317
0.99935 1 1 0.99935
1.00116 1 1.00198 0.999173
0.999053 1.00266 0.997225 0.999177
1.00106 1 1.00204 0.999017
1.00644 1.00928 0.997964 0.999225
0.999564 1 1 0.999564
0.999487 1 1 0.999487
0.999434 1 1 0.999434
0.999849 1 1 0.999849
0.999692 1 1 0.999692
0.999612 1 1 0.999612
0.999496 1 1 0.999496
0.999848 1 1 0.999848
0.999703 1 1 0.999703
0.999452 1 1 0.999452
0.99961 1 1 0.99961
0.999514 1 1 0.999514
0.999434 1 1 0.999434
0.999541 1 1 0.999541
0.999619 1 1 0.999619
0.999692 1 1 0.999692
0.999824 1 1 0.999824
0.99973 1 1 0.99973
0.999824 1 1 0.999824
0.99999 1 1 0.99999
0.999991 1 1 0.999991
1 1 1 1
0.999992 1 1 0.999992
1 1 1 1
1 1 1 1
1 1 1 1
1 1 1 1
1 1 1 1
1 1 1 1
0.999998 1 1 0.999998
1 1 1 1
1 1 1 1
1 1 1 1
1 1 1 1
1 1 1 1
1 1 1 1
0.999461 1.00019 1 0.999274
1.00013 1.001 1 0.999133
1.00016 1.00106 1 0.999098
1.00026 1.00113 1 0.999131
1.00007 1.00088 1 0.999185
0.99947 1.00019 1 0.999283
1.00075 1.00154 1 0.999207
1.00572 1.01112 0.995275 0.999389
1.00801 1.00897 0.999666 0.999384
0.999904 1 1 0.999904
0.999446 1.00035 1 0.999099
0.999668 1.00058 1 0.999093
1.00103 1.00172 1 0.999307
0.999488 1 1 0.999488
1.00047 1 1.00127 0.999199
0.999238 1 1.00012 0.999121
0.99984 1.00042 1 0.999422
0.999473 1 1 0.999473
0.999476 1 1 0.999476
0.999356 1 1 0.999356
0.99999 1 1 0.99999
0.999512 1 1 0.999512
0.999855 1 1 0.999855
0.999647 1 1 0.999647
0.999855 1 1 0.999855
0.999998 1.00087 1 0.999127
0.999883 1 1 0.999883
0.999851 1 1 0.999851
0.999734 1 1 0.999734
1.00148 1.00231 1 0.999178
1.00119 1.00226 0.999469 0.999459