# vtk DataFile Version 2.0
Wound Healing Simulation
ASCII
DATASET UNSTRUCTURED_GRID
POINTS 3012 float
69.9759 18.75 4
67.2507 60.3285 4
69.976 18.75 2
73.0099 25.446 4
71.1327 20.9142 4
68.6801 16.6661 4
67.8277 19.9232 3.98857
67.2507 60.3286 2
71.1327 54.0858 4
68.6801 58.3339 4
65.6939 62.2254 4
65.3141 59.0052 3.98991
74.6784 42.3946 4
73.7221 47.2057 4
69.9759 18.75 0
73.0099 25.446 2
68.6801 16.6661 2
71.1327 20.9142 2
67.8281 19.9238 2
74.6792 32.6053 4
73.7222 27.7943 4
72.1454 23.1494 4
70.6164 26.2221 3.9875
68.8881 21.9568 3.98824
67.2507 14.6715 4
66.639 17.9678 3.98926
65.8041 21.0191 3.98425
67.2507 60.3285 0
71.1327 54.0858 2
68.6801 58.3339 2
65.694 62.2255 2
65.3142 59.0052 2
72.1454 51.8506 4
69.9759 56.25 4
68.8391 53.114 3.98815
64.0165 64.0165 4
66.6128 57.1372 3.98942
63.8873 60.7698 3.99096
63.5059 57.7808 3.98541
60.3285 67.2507 4
74.6792 42.3947 2
73.7222 47.2057 2
74.9194 39.9526 4
74.2788 44.8158 4
72.1696 42.0852 3.9863
73.0099 49.554 4
71.2515 46.5968 3.98754
73.0099 25.446 0
71.1327 20.9142 0
68.6801 16.6661 0
67.8277 19.9232 0.0114299
74.6792 32.6053 2
73.7222 27.7943 2
67.2508 14.6715 2
72.1455 23.1494 2
70.6165 26.2231 2
66.6394 17.9679 2
68.8885 21.9578 2
65.8044 21.0186 2
74.9197 35.0474 4
74.2794 30.1841 4
72.1862 32.9433 3.98647
71.2801 28.4324 3.98729
69.818 24.0599 3.98793
68.3529 26.9505 3.98106
66.7697 22.9292 3.98349
65.694 12.7746 4
65.3254 16.0989 3.99025
64.7202 19.1863 3.98513
63.8984 22.025 3.98179
71.1327 54.0858 0
65.6939 62.2254 0
68.6801 58.3339 0
65.3141 59.0052 0.01009
72.1455 51.8506 2
69.9759 56.25 2
68.8394 53.1131 2
64.0165 64.0165 2
66.6131 57.1371 2
63.8875 60.7697 2
63.506 57.7811 2
62.2254 65.694 4
58.8943 65.4166 3.99257
69.7717 50.9883 3.98783
67.7862 55.1698 3.98884
66.6573 52.2128 3.98343
62.3373 62.4306 3.99182
64.6676 56.0392 3.9855
62.2068 59.414 3.98564
61.8322 56.6945 3.98332
58.3339 68.6801 4
60.3285 67.2508 2
73.7221 47.2057 0
74.6784 42.3946 0
74.9197 39.9526 2
74.2794 44.8159 2
72.1696 42.0855 2
73.0099 49.554 2
71.2515 46.5964 2
75 37.5 4
72.4065 39.802 3.98537
71.7843 44.352 3.9871
69.8088 41.7889 3.97962
70.5777 48.8122 3.98774
68.9185 46.0146 3.98054
74.6792 32.6053 0
73.7222 27.7943 0
67.2507 14.6715 0
72.1454 23.1494 0
70.6164 26.2221 0.0124982
68.8881 21.9568 0.0117603
66.639 17.9678 0.0107398
65.8041 21.0191 0.0157473
74.9197 35.0474 2
74.2794 30.1841 2
72.1862 32.9435 2
71.2801 28.4331 2
65.694 12.7745 2
65.3256 16.0988 2
69.8182 24.061 2
68.3529 26.9505 2
64.7205 19.1857 2
66.7698 22.9289 2
63.8987 22.0245 2
72.4143 35.224 3.98538
71.8056 30.6768 3.98714
69.8446 33.2684 3.9798
68.9717 29.0379 3.98035
67.6181 24.9097 3.98237
66.2042 27.6311 3.97854
64.0165 10.9835 4
64.7681 23.8222 3.9811
63.8914 14.3231 3.99114
63.5184 17.4366 3.98601
62.9176 20.3075 3.98251
62.1081 22.9292 3.98057
60.6846 11.0947 3.99214
57.613 11.439 3.98729
72.1454 51.8506 0
69.9759 56.25 0
68.8391 53.114 0.0118466
64.0165 64.0165 0
63.8873 60.7698 0.00904157
66.6128 57.1372 0.0105828
63.5059 57.7808 0.0145943
62.2255 65.694 2
58.8945 65.4166 2
69.7718 50.9874 2
67.7865 55.1692 2
66.6574 52.2132 2
62.3374 62.4306 2
64.6678 56.0397 2
62.2068 59.4144 2
61.8323 56.6949 2
60.6693 63.9797 3.99221
57.0248 66.7372 3.99298
57.5583 63.6979 3.98745
67.515 50.1786 3.98229
65.7097 54.179 3.98468
64.5504 51.3927 3.98062
60.7755 60.9468 3.98632
62.8314 55.08 3.9836
60.6651 58.173 3.98331
60.3399 55.8023 3.98246
56.25 69.9759 4
58.3339 68.6801 2
60.3285 67.2507 0
58.9215 9.65303 3.99254
62.2254 9.30607 4
73.0099 49.554 0
74.2788 44.8158 0
71.2515 46.5968 0.0124616
72.1696 42.0852 0.013704
74.9194 39.9526 0
75 37.5 2
72.4065 39.8024 2
71.7843 44.3521 2
69.8088 41.7889 2
70.5777 48.8115 2
68.9184 46.0146 2
72.4897 37.5119 3.98489
70.0448 39.6567 3.97853
69.436 43.9069 3.98022
67.6052 41.4979 3.97686
68.2729 48.1078 3.98132
66.7199 45.4417 3.9781
74.9197 35.0474 0
74.2794 30.1841 0
72.1862 32.9433 0.0135253
71.2801 28.4324 0.0127145
65.694 12.7746 0
65.3254 16.0989 0.00974764
69.818 24.0599 0.0120744
68.3529 26.9505 0.0189392
66.7697 22.9292 0.0165132
64.7202 19.1863 0.01487
63.8984 22.025 0.0182064
72.4144 35.2242 2
71.8056 30.6771 2
69.8446 33.2686 2
68.9717 29.038 2
64.0165 10.9835 2
63.8915 14.323 2
63.5186 17.4361 2
67.6181 24.9096 2
66.2041 27.6308 2
62.9179 20.307 2
64.7683 23.8217 2
62.1083 22.9289 2
60.6847 11.0946 2
57.613 11.4385 2
70.0616 35.3919 3.97892
69.4723 31.1495 3.98024
67.6631 33.5895 3.97702
66.7811 29.6203 3.97771
65.5349 25.6937 3.97985
64.1591 28.2489 3.97774
62.3426 12.6516 3.99171
62.8723 24.6257 3.98012
62.2023 15.7745 3.98623
61.8223 18.6703 3.98361
61.2316 21.3254 3.98079
60.4441 23.7105 3.98032
59.2475 12.7699 3.98651
55.8747 10.2258 3.98851
56.4067 13.1013 3.98434
69.7717 50.9883 0.0121678
62.2254 65.694 0
58.8943 65.4166 0.00743472
67.7862 55.1698 0.0111616
66.6573 52.2128 0.0165707
62.3373 62.4306 0.00818299
62.2068 59.414 0.0143556
64.6676 56.0392 0.014497
61.8322 56.6945 0.0166774
60.6695 63.9798 2
57.025 66.7372 2
57.5583 63.6984 2
67.515 50.1788 2
65.7099 54.1795 2
64.5505 51.3932 2
60.7756 60.9473 2
62.8316 55.0805 2
60.6652 58.1734 2
60.3401 55.8026 2
55.0702 67.9339 3.9933
59.2207 62.3738 3.9867
55.8043 64.9149 3.98844
56.3284 62.0987 3.98456
65.344 49.4134 3.9795
63.7187 53.3023 3.98222
62.4589 50.6628 3.97921
59.3377 59.5693 3.98423
61.0917 54.3245 3.98277
59.2982 57.0291 3.9817
59.2559 55.2013 3.98271
48.1025 68.5819 3.99017
50.9481 69.9332 3.9938
54.0858 71.1327 4
56.25 69.976 2
58.3339 68.6801 0
57.0586 8.33298 3.99305
60.3285 7.74928 4
58.9217 9.65293 2
62.2255 9.30602 2
70.5777 48.8122 0.0122577
71.7843 44.352 0.012899
68.9185 46.0146 0.0194557
69.8088 41.7889 0.0203842
72.4065 39.802 0.0146294
75 37.5 0
72.4897 37.5122 2
70.0449 39.6567 2
69.4359 43.9069 2
67.6052 41.498 2
68.2728 48.1079 2
66.7197 45.442 2
70.1325 37.5212 3.97813
67.8407 39.5121 3.97579
67.2327 43.4709 3.97761
65.5668 41.2115 3.97605
66.0799 47.4212 3.97879
64.6657 44.8524 3.97725
72.4143 35.224 0.0146177
71.8056 30.6768 0.0128614
69.8446 33.2684 0.0201951
68.9717 29.0379 0.0196464
64.0165 10.9835 0
63.8914 14.3231 0.00885951
63.5184 17.4366 0.0139949
67.6181 24.9097 0.0176338
66.2042 27.6311 0.0214576
64.7681 23.8222 0.0188966
62.9176 20.3075 0.0174935
62.1081 22.9292 0.0194278
60.6846 11.0947 0.00786484
57.613 11.439 0.0127057
70.0617 35.392 2
69.4723 31.1496 2
67.6632 33.5894 2
66.781 29.62 2
62.3427 12.6516 2
62.2024 15.774 2
61.8226 18.6698 2
65.5349 25.6934 2
64.159 28.2486 2
61.232 21.325 2
62.8725 24.6254 2
60.4443 23.7103 2
59.2474 12.7694 2
56.4067 13.1007 2
55.8747 10.2252 2
67.877 35.5466 3.9763
67.2739 31.6204 3.97765
65.7081 33.9245 3.97597
64.6748 30.187 3.97658
63.5525 26.4053 3.97884
62.273 28.7683 3.9782
60.7772 14.2141 3.98622
61.0638 25.3231 3.97995
60.6183 17.1138 3.98438
60.2337 19.7989 3.9821
59.6778 22.2396 3.97958
58.9991 24.3012 3.98065
54.0376 9.12936 3.98926
57.9125 14.3195 3.98436
54.7876 12.0007 3.98514
55.3146 14.6318 3.98317
67.515 50.1786 0.0177143
57.0248 66.7372 0.00702448
60.6693 63.9797 0.00778501
57.5583 63.6979 0.0125526
65.7097 54.179 0.0153157
64.5504 51.3927 0.0193799
60.7755 60.9468 0.0136792
60.6651 58.173 0.0166899
62.8314 55.08 0.0163994
60.3399 55.8023 0.0175394
55.0704 67.934 2
59.2206 62.3744 2
55.8043 64.9153 2
56.3284 62.0992 2
65.3439 49.4138 2
63.7188 53.3029 2
62.4589 50.6633 2
59.3378 59.5699 2
61.0919 54.3249 2
59.2983 57.0294 2
59.256 55.2016 2
53.0421 69.0016 3.99357
53.9664 66.0168 3.98912
57.8835 60.8806 3.98441
54.6842 63.2143 3.9853
55.2139 60.6265 3.9832
63.2106 48.6693 3.97828
61.7583 52.5885 3.98097
60.2947 50.0331 3.97847
58.0242 58.2758 3.98265
59.3438 53.9651 3.98199
58.1379 55.8315 3.98013
50.109 67.8599 3.98992
47.4629 66.5862 3.98787
46.0564 69.1614 3.99041
48.1026 68.5823 2
48.8023 70.7244 3.99401
50.9483 69.9334 2
51.8506 72.1454 4
54.0858 71.1327 2
56.25 69.9759 0
55.1028 7.13761 3.99337
58.3339 6.31992 4
57.0588 8.33282 2
60.3286 7.74926 2
58.9215 9.65303 0.00745615
62.2254 9.30607 0
68.2729 48.1078 0.0186791
69.436 43.9069 0.0197778
66.7199 45.4417 0.0219034
67.6052 41.4979 0.0231351
70.0448 39.6567 0.0214739
72.4897 37.5119 0.0151139
70.1326 37.5212 2
67.8408 39.5122 2
67.2327 43.4711 2
65.5668 41.2117 2
66.0798 47.4216 2
64.6656 44.8528 2
67.9364 37.5214 3.97516
65.7965 39.3707 3.97505
65.1883 43.0281 3.9767
63.7693 40.9324 3.97595
63.9805 46.7226 3.97775
62.8237 44.2224 3.97786
70.0616 35.3919 0.0210791
69.4723 31.1495 0.0197649
67.6631 33.5895 0.0229798
66.7811 29.6203 0.022292
62.3426 12.6516 0.00828576
62.2023 15.7745 0.0137686
61.8223 18.6703 0.0163901
65.5349 25.6937 0.0201498
64.1591 28.2489 0.0222593
62.8723 24.6257 0.019881
61.2316 21.3254 0.0192087
60.4441 23.7105 0.0196842
59.2475 12.7699 0.0134906
56.4067 13.1013 0.0156577
55.8747 10.2258 0.0114931
67.8771 35.5466 2
67.2739 31.6202 2
65.7082 33.9242 2
64.6747 30.1867 2
60.7772 14.2135 2
60.6185 17.1132 2
60.2342 19.7984 2
63.5525 26.405 2
62.2729 28.768 2
59.6782 22.2393 2
61.0639 25.3229 2
58.9993 24.3011 2
57.9125 14.319 2
55.3146 14.6312 2
54.0376 9.12881 2
54.7876 12 2
65.8855 35.6652 3.97534
65.1977 32.1501 3.97644
64.2966 34.2464 3.97571
62.6097 30.6279 3.9765
61.6687 27.0603 3.97851
60.8684 29.1286 3.98014
59.3139 15.656 3.98449
59.3527 25.7793 3.98126
59.1309 18.3388 3.98345
58.7535 20.8342 3.98051
58.3036 23.0717 3.97847
57.9902 24.6448 3.98136
52.1123 8.14814 3.98971
53.0583 11.0072 3.98614
56.6794 15.7276 3.98359
53.8109 13.6671 3.98335
54.3789 15.9826 3.98302
55.0702 67.9339 0.00670212
65.344 49.4134 0.0205008
55.8043 64.9149 0.0115603
59.2207 62.3738 0.0132971
56.3284 62.0987 0.0154419
63.7187 53.3023 0.0177811
62.4589 50.6628 0.0207911
59.3377 59.5693 0.0157734
59.2982 57.0291 0.0183044
61.0917 54.3245 0.0172294
59.2559 55.2013 0.0172897
53.0423 69.0017 2
53.9664 66.0172 2
57.8834 60.8811 2
54.6841 63.2147 2
55.2138 60.627 2
63.2105 48.6697 2
61.7584 52.589 2
60.2947 50.0335 2
58.0244 58.2763 2
59.344 53.9654 2
58.1381 55.8317 2
52.0699 67.0031 3.98961
52.953 64.2243 3.98616
56.6523 59.5013 3.98334
[...]
POINT_DATA 3012
SCALARS rho_c_phif_kappa float 4
LOOKUP_TABLE default
1000 0 1.00042 0.24118
1000 0 1.00039 0.241364
1000 0 1.00042 0.241067
1000 0 1.00042 0.241251
1000 0 1.00042 0.241203
1000 0 1.00042 0.241149
1003.36 3.89515e-09 1.00044 0.241163
1000 0 1.00039 0.241353
1000 0 1.00039 0.24126
1000 0 1.00039 0.241284
1000 0 1.00041 0.24103
1003.36 3.86079e-09 1.00045 0.241029
1000 0 1.00042 0.241294
1000 0 1.00042 0.241104
1000 0 1.00042 0.240955
1000 0 1.00042 0.241149
1000 0 1.00042 0.241046
1000 0 1.00042 0.241089
1003.36 3.8983e-09 1.00044 0.241213
1000 0 1.00039 0.241422
1000 0 1.00042 0.241291
1000 0 1.00042 0.241223
1003.35 3.9138e-09 1.00044 0.241274
1003.36 3.90316e-09 1.00044 0.241211
1000 0 1.00042 0.241129
1003.37 3.88689e-09 1.00044 0.241121
1002.88 3.385e-09 1.00045 0.241331
1000 0 1.00039 0.241344
1000 0 1.0004 0.241159
1000 0 1.0004 0.241148
1000 0 1.00039 0.241374
1003.36 3.86313e-09 1.00045 0.241033
1000 0 1.00042 0.241057
1000 0 1.00042 0.24103
1003.36 3.90426e-09 1.00044 0.241242
1000 0 1.00039 0.241368
1003.36 3.8752e-09 1.00044 0.241171
1003.37 3.85108e-09 1.00045 0.241102
1002.89 3.40331e-09 1.00045 0.241321
1000 0 1.00039 0.241447
1000 0 1.00039 0.241443
1000 0 1.0004 0.241244
1000 0 1.00039 0.241496
1000 0 1.00042 0.241177
1003.34 3.92027e-09 1.00045 0.241325
1000 0 1.00039 0.241275
1003.35 3.92293e-09 1.00044 0.24135
1000 0 1.00042 0.241051
1000 0 1.00042 0.240979
1000 0 1.00042 0.240941
1003.36 3.89515e-09 1.00044 0.241262
1000 0 1.0004 0.241402
1000 0 1.00042 0.241202
1000 0 1.00042 0.241038
1000 0 1.00042 0.241113
1003.34 3.91711e-09 1.00044 0.241317
1003.36 3.88962e-09 1.00044 0.241166
1003.35 3.90653e-09 1.00044 0.241265
1002.88 3.38412e-09 1.00045 0.24133
1000 0 1.00039 0.241456
1000 0 1.00042 0.241339
1003.33 3.91632e-09 1.00044 0.24133
1003.34 3.91588e-09 1.00043 0.241295
1003.35 3.90992e-09 1.00044 0.241247
1002.88 3.36729e-09 1.00045 0.241381
1002.88 3.37866e-09 1.00045 0.241364
1000 0 1.00042 0.241127
1003.37 3.87858e-09 1.00044 0.241114
1002.88 3.39157e-09 1.00045 0.241291
1002.91 3.40424e-09 1.00045 0.241174
1000 0 1.00039 0.241329
1000 0 1.00039 0.241369
1000 0 1.00039 0.241327
1003.36 3.86079e-09 1.00045 0.241038
1000 0 1.00039 0.241324
1000 0 1.00039 0.241343
1003.35 3.90751e-09 1.00045 0.241132
1000 0 1.0004 0.241206
1003.35 3.87785e-09 1.00045 0.241042
1003.37 3.85309e-09 1.00045 0.241139
1002.89 3.40251e-09 1.00045 0.241321
1000 0 1.00039 0.241423
1003.41 3.84774e-09 1.00045 0.241095
1003.35 3.91365e-09 1.00045 0.241267
1003.36 3.89126e-09 1.00045 0.241162
1002.88 3.37658e-09 1.00045 0.241345
1003.38 3.84503e-09 1.00044 0.241192
1002.89 3.39662e-09 1.00045 0.241343
1002.89 3.4072e-09 1.00045 0.241301
1002.92 3.40698e-09 1.00045 0.241268
1000 0 1.00039 0.241471
1000 0 1.00039 0.241447
1000 0 1.00039 0.241341
1000 0 1.00039 0.241422
1000 0 1.00039 0.24148
1000 0 1.0004 0.241298
1003.33 3.92335e-09 1.00044 0.241318
1000 0 1.0004 0.241198
1003.34 3.92586e-09 1.00044 0.241295
1000 0 1.00039 0.241493
1003.33 3.91644e-09 1.00045 0.241284
1003.34 3.92275e-09 1.00044 0.241351
1002.88 3.36237e-09 1.00045 0.24123
1003.35 3.92071e-09 1.00044 0.241282
1002.88 3.36295e-09 1.00045 0.241362
1000 0 1.00042 0.241289
1000 0 1.00042 0.241115
1000 0 1.00042 0.240946
1000 0 1.00042 0.241008
1003.35 3.9138e-09 1.00044 0.241356
1003.36 3.90316e-09 1.00044 0.241318
1003.37 3.88689e-09 1.00044 0.241211
1002.88 3.385e-09 1.00045 0.24133
1000 0 1.00039 0.241466
1000 0 1.00042 0.241263
1003.33 3.91952e-09 1.00044 0.241317
1003.34 3.91899e-09 1.00043 0.241328
1000 0 1.0004 0.241184
1003.37 3.88078e-09 1.00044 0.24116
1003.35 3.91331e-09 1.00044 0.2413
1002.88 3.36636e-09 1.00045 0.241363
1002.89 3.3908e-09 1.00045 0.241292
1002.88 3.37767e-09 1.00045 0.241366
1002.91 3.40463e-09 1.00045 0.241173
1003.33 3.91499e-09 1.00045 0.241325
1003.34 3.9168e-09 1.00043 0.241304
1002.88 3.3639e-09 1.00045 0.241269
1002.88 3.36345e-09 1.00045 0.241343
1002.88 3.37266e-09 1.00045 0.24138
1002.9 3.39622e-09 1.00045 0.241143
1000 0 1.00039 0.241386
1002.91 3.40187e-09 1.00045 0.241174
1003.38 3.87041e-09 1.00045 0.241038
1002.88 3.39653e-09 1.00045 0.241288
1002.92 3.40745e-09 1.00045 0.241166
1002.91 3.40976e-09 1.00045 0.240941
1003.41 3.86255e-09 1.00045 0.241099
1002.86 3.39725e-09 1.00045 0.241426
1000 0 1.00039 0.241323
1000 0 1.00039 0.241326
1003.36 3.90426e-09 1.00045 0.241135
1000 0 1.00039 0.241395
1003.37 3.85108e-09 1.00045 0.241047
1003.36 3.8752e-09 1.00045 0.241046
1002.89 3.40331e-09 1.00045 0.241322
1000 0 1.00039 0.241422
1003.41 3.84916e-09 1.00045 0.24109
1003.35 3.91689e-09 1.00045 0.241274
1003.35 3.89421e-09 1.00045 0.241178
1002.88 3.3757e-09 1.00045 0.241363
1003.38 3.84674e-09 1.00045 0.241065
1002.89 3.39576e-09 1.00045 0.241348
1002.89 3.40646e-09 1.00045 0.241304
1002.92 3.40729e-09 1.00045 0.241268
1003.39 3.84483e-09 1.00045 0.241083
1003.43 3.85153e-09 1.00045 0.241094
1002.86 3.40238e-09 1.00045 0.241397
1002.88 3.37062e-09 1.00045 0.241382
1002.89 3.38568e-09 1.00045 0.241331
1002.91 3.40545e-09 1.00045 0.241156
1002.88 3.40738e-09 1.00045 0.241345
1002.91 3.40667e-09 1.00045 0.241256
1002.92 3.40832e-09 1.00045 0.241235
1002.92 3.4198e-09 1.00045 0.241055
1000 0 1.00039 0.241495
1000 0 1.00039 0.241471
1000 0 1.00039 0.241446
1003.42 3.86303e-09 1.00045 0.241094
1000 0 1.00039 0.241416
1000 0 1.00039 0.241324
1000 0 1.00039 0.241374
1003.35 3.92293e-09 1.00045 0.241256
1003.34 3.92027e-09 1.00045 0.241292
1000 0 1.00039 0.241472
1000 0 1.00039 0.241502
1003.32 3.9197e-09 1.00045 0.241295
1003.34 3.92572e-09 1.00044 0.2413
1002.88 3.3614e-09 1.00045 0.241233
1003.35 3.92374e-09 1.00045 0.241219
1002.88 3.36205e-09 1.00045 0.241359
1003.33 3.91361e-09 1.00045 0.241315
1002.88 3.36183e-09 1.00045 0.241182
1002.88 3.36246e-09 1.00045 0.241299
1002.9 3.39372e-09 1.00044 0.241089
1002.88 3.36427e-09 1.00045 0.241392
1002.9 3.39689e-09 1.00045 0.241163
1000 0 1.00039 0.241485
1000 0 1.00042 0.241187
1003.33 3.91632e-09 1.00045 0.241351
1003.34 3.91588e-09 1.00043 0.241362
1000 0 1.00039 0.241331
1003.37 3.87858e-09 1.00044 0.241207
1003.35 3.90992e-09 1.00044 0.241348
1002.88 3.36729e-09 1.00045 0.241345
1002.88 3.37866e-09 1.00045 0.241369
1002.88 3.39157e-09 1.00045 0.241293
1002.91 3.40424e-09 1.00045 0.241173
1003.32 3.91852e-09 1.00045 0.241311
1003.33 3.91981e-09 1.00043 0.24134
1002.88 3.3629e-09 1.00045 0.241267
1002.88 3.36256e-09 1.00045 0.241342
1000 0 1.00039 0.241388
1003.38 3.87229e-09 1.00045 0.241124
1002.88 3.39586e-09 1.00045 0.241293
1002.88 3.37167e-09 1.00045 0.241372
1002.9 3.39664e-09 1.00045 0.241125
1002.92 3.40788e-09 1.00045 0.241158
1002.91 3.40222e-09 1.00045 0.241181
1002.91 3.40991e-09 1.00045 0.240946
1003.4 3.86416e-09 1.00045 0.241096
1002.86 3.3965e-09 1.00045 0.24141
1002.88 3.36403e-09 1.00045 0.241211
1002.88 3.36304e-09 1.00045 0.241315
1002.9 3.39102e-09 1.00044 0.241114
1002.9 3.39265e-09 1.00044 0.241108
1002.91 3.39982e-09 1.00045 0.241155
1002.91 3.39793e-09 1.00044 0.240941
1003.39 3.86462e-09 1.00045 0.241076
1002.91 3.40647e-09 1.00045 0.240945
1002.88 3.39906e-09 1.00045 0.241334
1002.92 3.40955e-09 1.00045 0.241209
1002.92 3.41447e-09 1.00045 0.240932
1002.91 3.40327e-09 1.00045 0.240684
1002.87 3.3985e-09 1.00045 0.241411
1002.85 3.39516e-09 1.00045 0.241438
1002.92 3.4094e-09 1.00045 0.241381
1003.35 3.91365e-09 1.00045 0.241196
1000 0 1.00039 0.24142
1003.41 3.84774e-09 1.00045 0.241084
1003.36 3.89126e-09 1.00045 0.241077
1002.88 3.37658e-09 1.00045 0.241379
1003.38 3.84503e-09 1.00045 0.241071
1002.89 3.4072e-09 1.00045 0.241307
1002.89 3.39662e-09 1.00045 0.241353
1002.92 3.40698e-09 1.00045 0.241267
1003.39 3.84635e-09 1.00045 0.241085
1003.42 3.85285e-09 1.00045 0.241084
1002.86 3.4015e-09 1.00045 0.241408
1002.88 3.36973e-09 1.00045 0.241391
1002.89 3.38481e-09 1.00045 0.241346
1002.91 3.40575e-09 1.00045 0.241156
1002.88 3.40656e-09 1.00045 0.241349
1002.91 3.40687e-09 1.00045 0.241265
1002.92 3.40876e-09 1.00045 0.241237
1002.92 3.41993e-09 1.00045 0.24104
1003.44 3.85636e-09 1.00045 0.241087
1002.87 3.40485e-09 1.00045 0.241389
1002.86 3.40026e-09 1.00045 0.241403
1002.92 3.40927e-09 1.00045 0.241411
1002.91 3.40036e-09 1.00045 0.241179
1002.91 3.4126e-09 1.00045 0.241182
1002.91 3.39838e-09 1.00045 0.240884
1002.92 3.40886e-09 1.00045 0.24131
1002.92 3.42e-09 1.00045 0.240993
1002.93 3.42763e-09 1.00045 0.240986
1002.92 3.41666e-09 1.00045 0.240838
1002.83 3.39153e-09 1.00045 0.241389
1003.47 3.8669e-09 1.00045 0.241069
1000 0 1.00039 0.241516
1000 0 1.00039 0.241495
1000 0 1.00039 0.241471
1003.44 3.86676e-09 1.00045 0.241077
1000 0 1.00039 0.241446
1003.42 3.86451e-09 1.00045 0.241102
1000 0 1.00039 0.241416
1003.35 3.92071e-09 1.00045 0.241235
1003.34 3.92275e-09 1.00045 0.241273
1002.88 3.36295e-09 1.00045 0.241357
1002.88 3.36237e-09 1.00045 0.241235
1003.33 3.91644e-09 1.00045 0.241305
1000 0 1.00039 0.2415
1003.33 3.91717e-09 1.00045 0.241311
1002.88 3.3608e-09 1.00045 0.241183
1002.88 3.36145e-09 1.00045 0.2413
1002.9 3.39418e-09 1.00044 0.241086
1002.88 3.36343e-09 1.00045 0.241393
1002.9 3.39733e-09 1.00045 0.241162
1002.88 3.36338e-09 1.00045 0.241178
1002.9 3.39371e-09 1.00044 0.241051
1002.9 3.39589e-09 1.00044 0.24113
1002.9 3.3908e-09 1.00044 0.240958
1002.9 3.40011e-09 1.00045 0.241183
1002.9 3.39472e-09 1.00044 0.240961
1003.33 3.91499e-09 1.00045 0.241295
1003.34 3.9168e-09 1.00043 0.241375
1002.88 3.3639e-09 1.00045 0.241263
1002.88 3.36345e-09 1.00045 0.241342
1000 0 1.00039 0.241392
1003.38 3.87041e-09 1.00044 0.241165
1002.88 3.39653e-09 1.00045 0.241299
1002.88 3.37266e-09 1.00045 0.241364
1002.9 3.39622e-09 1.00044 0.241108
1002.91 3.40187e-09 1.00045 0.241187
1002.92 3.40745e-09 1.00045 0.241149
1002.91 3.40976e-09 1.00045 0.240951
1003.41 3.86255e-09 1.00045 0.241094
1002.86 3.39725e-09 1.00045 0.241396
1002.88 3.3629e-09 1.00045 0.241211
1002.88 3.36216e-09 1.00045 0.241311
1002.9 3.39143e-09 1.00044 0.241108
1002.9 3.39312e-09 1.00044 0.241115
1003.39 3.86636e-09 1.00045 0.24107
1002.88 3.39834e-09 1.00045 0.241333
1002.92 3.40998e-09 1.00045 0.241214
1002.91 3.40025e-09 1.00045 0.24116
1002.91 3.39817e-09 1.00044 0.240927
1002.92 3.41476e-09 1.00045 0.240921
1002.91 3.40662e-09 1.00045 0.240947
1002.91 3.40354e-09 1.00045 0.240676
1002.87 3.39771e-09 1.00045 0.241404
1002.92 3.40984e-09 1.00045 0.241391
1002.85 3.3944e-09 1.00045 0.241418
1002.9 3.38873e-09 1.00044 0.24108
1002.9 3.39112e-09 1.00044 0.241118
1002.9 3.39335e-09 1.00044 0.240991
1002.9 3.39563e-09 1.00044 0.24094
1002.91 3.40172e-09 1.00045 0.240912
1002.9 3.39645e-09 1.00044 0.240754
1002.87 3.39954e-09 1.00045 0.241378
1002.91 3.3994e-09 1.00045 0.240683
1002.92 3.40975e-09 1.00045 0.241312
1002.92 3.42269e-09 1.00045 0.240959
1002.91 3.40615e-09 1.00045 0.24062
1002.91 3.39972e-09 1.00045 0.240419
1002.85 3.39228e-09 1.00045 0.241449
1002.92 3.40933e-09 1.00045 0.241397
1002.93 3.41018e-09 1.00045 0.241382
1002.92 3.42109e-09 1.00045 0.241208
1002.88 3.37062e-09 1.00045 0.2414
1003.43 3.85153e-09 1.00045 0.241075
1003.39 3.84483e-09 1.00045 0.241087
1002.86 3.40238e-09 1.00045 0.24142
1002.89 3.38568e-09 1.00045 0.241361
1002.91 3.40545e-09 1.00045 0.241155
1002.88 3.40738e-09 1.00045 0.241352
1002.92 3.40832e-09 1.00045 0.241237
1002.91 3.40667e-09 1.00045 0.241274
1002.92 3.4198e-09 1.00045 0.241026
1003.44 3.85756e-09 1.00045 0.241077
1002.87 3.40396e-09 1.00045 0.241394
1002.86 3.39942e-09 1.00045 0.241416
1002.92 3.40953e-09 1.00045 0.241407
1002.91 3.40079e-09 1.00045 0.241174
1002.91 3.41299e-09 1.00045 0.241185
1002.91 3.39884e-09 1.00045 0.240883
1002.92 3.40919e-09 1.00045 0.241307
1002.92 3.42018e-09 1.00045 0.241004
1002.93 3.42804e-09 1.00045 0.240982
1002.92 3.41694e-09 1.00045 0.240862
1003.46 3.86111e-09 1.00045 0.241079
1002.85 3.39763e-09 1.00045 0.241412
1002.92 3.40852e-09 1.00045 0.241397
1002.93 3.40908e-09 1.00045 0.241429
1002.92 3.42214e-09 1.00045 0.241214
1002.91 3.37477e-09 1.00045 0.24094
1002.92 3.39168e-09 1.00045 0.240886
1002.91 3.41255e-09 1.00045 0.240551
1002.93 3.42993e-09 1.00045 0.241054
1002.91 3.39429e-09 1.00045 0.240675
1002.92 3.38791e-09 1.00045 0.240733
1002.84 3.3937e-09 1.00045 0.241407
1002.93 3.4113e-09 1.00045 0.24155
1002.82 3.38872e-09 1.00045 0.24137
1002.83 3.39083e-09 1.00045 0.241393
1003.49 3.87255e-09 1.00044 0.241184
1003.47 3.8679e-09 1.00045 0.241146
1000 0 1.00042 0.24129
1000 0 1.00039 0.241516
1000 0 1.00039 0.241495
1003.45 3.87221e-09 1.00045 0.241065
1000 0 1.00039 0.241473
1003.43 3.868e-09 1.00045 0.241091
1000 0 1.00039 0.241445
1003.42 3.86303e-09 1.00045 0.241109
1000 0 1.00039 0.241416
1002.88 3.36427e-09 1.00045 0.241393
1002.88 3.36246e-09 1.00045 0.241301
1002.9 3.39689e-09 1.00045 0.241161
1002.9 3.39372e-09 1.00044 0.241084
1002.88 3.36183e-09 1.00045 0.241184
1003.33 3.91361e-09 1.00045 0.241306
1002.88 3.36224e-09 1.00045 0.241177
1002.9 3.39416e-09 1.00044 0.241049
1002.9 3.39626e-09 1.00044 0.241128
1002.9 3.39087e-09 1.00044 0.240949
1002.9 3.40044e-09 1.00045 0.241181
1002.9 3.39465e-09 1.00044 0.240959
1002.9 3.39242e-09 1.00044 0.241046
1002.9 3.38175e-09 1.00044 0.240958
1002.9 3.39351e-09 1.00044 0.240953
1002.9 3.40284e-09 1.00044 0.240836
1002.91 3.39811e-09 1.00044 0.240959
1002.9 3.3995e-09 1.00044 0.240735
1002.88 3.36403e-09 1.00045 0.241212
1002.88 3.36304e-09 1.00045 0.241307
1002.9 3.39102e-09 1.00044 0.241102
1002.9 3.39265e-09 1.00044 0.241122
1003.39 3.86462e-09 1.00045 0.241064
1002.88 3.39906e-09 1.00045 0.241332
1002.92 3.40955e-09 1.00045 0.241219
1002.91 3.39982e-09 1.00045 0.241166
1002.91 3.39793e-09 1.00044 0.240912
1002.91 3.40647e-09 1.00045 0.240948
1002.92 3.41447e-09 1.00045 0.240909
1002.91 3.40327e-09 1.00045 0.240666
1002.87 3.3985e-09 1.00045 0.241397
1002.92 3.4094e-09 1.00045 0.2414
1002.85 3.39516e-09 1.00045 0.241399
1002.9 3.38912e-09 1.00044 0.241078
1002.9 3.39139e-09 1.00044 0.241113
1002.9 3.3934e-09 1.00044 0.240985
1002.9 3.39562e-09 1.00044 0.24094
1002.87 3.39876e-09 1.00045 0.241377
1002.92 3.41013e-09 1.00045 0.241313
1002.92 3.4231e-09 1.00045 0.240964
1002.91 3.40174e-09 1.00045 0.240926
1002.9 3.39621e-09 1.00044 0.240732
1002.91 3.40652e-09 1.00045 0.240601
1002.91 3.3993e-09 1.00045 0.240692
1002.91 3.39955e-09 1.00045 0.240412
1002.92 3.40968e-09 1.00045 0.241404
1002.92 3.42136e-09 1.00045 0.241212
1002.85 3.39152e-09 1.00045 0.241433
1002.93 3.41053e-09 1.00045 0.241388
1002.9 3.40144e-09 1.00044 0.240982
1002.9 3.39244e-09 1.00044 0.240952
1002.9 3.39018e-09 1.00044 0.240917
1002.9 3.37383e-09 1.00044 0.240792
1002.9 3.39548e-09 1.00044 0.240671
1002.9 3.36912e-09 1.00044 0.24053
1002.92 3.40948e-09 1.00045 0.241374
1002.91 3.39645e-09 1.00045 0.240403
1002.92 3.42779e-09 1.00045 0.2411
1002.92 3.39569e-09 1.00045 0.240647
1002.91 3.41653e-09 1.00045 0.240312
1002.91 3.4205e-09 1.00045 0.240172
1002.84 3.38826e-09 1.00045 0.241442
1002.93 3.41136e-09 1.00045 0.241437
1002.92 3.42116e-09 1.00045 0.241257
1002.92 3.42314e-09 1.00045 0.241136
1002.92 3.417e-09 1.00045 0.241113
1003.44 3.85636e-09 1.00045 0.241068
1002.91 3.40036e-09 1.00045 0.241168
1002.86 3.40026e-09 1.00045 0.241431
1002.87 3.40485e-09 1.00045 0.2414
1002.92 3.40927e-09 1.00045 0.241404
1002.91 3.4126e-09 1.00045 0.241188
1002.91 3.39838e-09 1.00045 0.240881
1002.92 3.40886e-09 1.00045 0.241305
1002.93 3.42763e-09 1.00045 0.240977
1002.92 3.42e-09 1.00045 0.241014
1002.92 3.41666e-09 1.00045 0.240887
1003.46 3.86225e-09 1.00045 0.241071
1002.85 3.39684e-09 1.00045 0.241424
1002.92 3.40874e-09 1.00045 0.241392
1002.93 3.40929e-09 1.00045 0.241427
1002.92 3.42216e-09 1.00045 0.241214
1002.91 3.37391e-09 1.00045 0.240933
1002.92 3.3913e-09 1.00045 0.240883
1002.91 3.4115e-09 1.00045 0.240538
1002.93 3.43016e-09 1.00045 0.241058
1002.91 3.39405e-09 1.00045 0.24071
1002.92 3.38805e-09 1.00045 0.240739
1002.84 3.39586e-09 1.00045 0.241415
1002.93 3.40932e-09 1.00045 0.241467
1002.92 3.42611e-09 1.00045 0.241187
1002.92 3.42654e-09 1.00045 0.241217
1002.92 3.41745e-09 1.00045 0.241081
1002.91 3.61148e-09 1.00044 0.240704
1002.92 3.45573e-09 1.00045 0.240476
1002.91 3.48123e-09 1.00045 0.240103
1002.92 3.384e-09 1.00045 0.240789
1002.92 3.48881e-09 1.00045 0.240495
1002.84 3.393e-09 1.00045 0.241412
1002.93 3.41081e-09 1.00045 0.241524
1002.93 3.41142e-09 1.00045 0.241553
1002.92 3.42269e-09 1.00045 0.241343
1002.94 3.41216e-09 1.00045 0.241554
1002.82 3.38519e-09 1.00045 0.241357
1002.82 3.38806e-09 1.00045 0.241374
1003.5 3.87959e-09 1.00044 0.241176
1002.83 3.39153e-09 1.00045 0.241396
1003.48 3.87343e-09 1.00044 0.241208
1000 0 1.00042 0.241302
1003.47 3.8669e-09 1.00044 0.241199
1000 0 1.0004 0.241371
1000 0 1.00039 0.241517
1003.47 3.87818e-09 1.00045 0.241054
1003.45 3.8733e-09 1.00045 0.241077
1000 0 1.00039 0.241496
1000 0 1.00039 0.241473
1003.44 3.86676e-09 1.00045 0.241103
1000 0 1.00039 0.241444
1002.9 3.40011e-09 1.00045 0.241178
1002.9 3.39589e-09 1.00044 0.241127
1002.9 3.39472e-09 1.00044 0.240957
1002.9 3.3908e-09 1.00044 0.240941
1002.9 3.39371e-09 1.00044 0.241048
1002.88 3.36338e-09 1.00045 0.241175
1002.9 3.39301e-09 1.00044 0.241046
1002.9 3.38217e-09 1.00044 0.240957
1002.9 3.3939e-09 1.00044 0.240953
1002.9 3.40407e-09 1.00044 0.240827
1002.91 3.3986e-09 1.00044 0.240957
1002.9 3.40068e-09 1.00044 0.240722
1002.9 3.35537e-09 1.00044 0.240964
1002.9 3.42547e-09 1.00044 0.24091
1002.9 3.35949e-09 1.00044 0.240756
1002.89 3.32473e-09 1.00044 0.240768
1002.9 3.35605e-09 1.00044 0.24071
1002.89 3.32737e-09 1.00044 0.240513
1002.9 3.38873e-09 1.00044 0.241075
1002.9 3.39112e-09 1.00044 0.241108
1002.9 3.39335e-09 1.00044 0.240978
1002.9 3.39563e-09 1.00044 0.24094
1002.87 3.39954e-09 1.00045 0.241376
1002.92 3.40975e-09 1.00045 0.241314
1002.92 3.42269e-09 1.00045 0.240968
1002.91 3.40172e-09 1.00045 0.240939
1002.9 3.39645e-09 1.00044 0.24071
1002.91 3.3994e-09 1.00045 0.240701
1002.91 3.40615e-09 1.00045 0.240584
1002.91 3.39972e-09 1.00045 0.240401
1002.92 3.40933e-09 1.00045 0.241412
1002.92 3.42109e-09 1.00045 0.241217
1002.85 3.39228e-09 1.00045 0.241417
1002.93 3.41018e-09 1.00045 0.241392
1002.9 3.40219e-09 1.00044 0.240984
1002.9 3.39317e-09 1.00044 0.240956
1002.9 3.39166e-09 1.00044 0.240919
1002.9 3.37518e-09 1.00044 0.240793
1002.92 3.40978e-09 1.00045 0.24138
1002.92 3.42806e-09 1.00045 0.241109
1002.92 3.39622e-09 1.00045 0.240638
1002.9 3.3965e-09 1.00044 0.240692
1002.9 3.37092e-09 1.00044 0.240531
1002.91 3.41709e-09 1.00045 0.240312
1002.91 3.39796e-09 1.00045 0.24041
1002.91 3.42148e-09 1.00045 0.240185
1002.92 3.4213e-09 1.00045 0.241258
1002.92 3.41726e-09 1.00045 0.241111
1002.92 3.42345e-09 1.00045 0.24113
1002.84 3.38757e-09 1.00045 0.241431
1002.93 3.41157e-09 1.00045 0.241445
1002.9 3.3676e-09 1.00044 0.240901
1002.89 3.40494e-09 1.00044 0.240837
1002.89 3.43728e-09 1.00044 0.240565
1002.9 3.43572e-09 1.00044 0.240379
1002.92 3.42573e-09 1.00045 0.241228
1002.9 3.39234e-09 1.00045 0.239958
1002.92 3.38354e-09 1.00045 0.240832
1002.92 3.47329e-09 1.00045 0.240314
1002.91 3.36974e-09 1.00045 0.240044
1002.83 3.38603e-09 1.00045 0.241415
1002.93 3.41728e-09 1.00045 0.241504
1002.92 3.42214e-09 1.00045 0.241164
1002.92 3.4152e-09 1.00045 0.241141
1002.92 3.41219e-09 1.00045 0.24095
1002.92 3.4116e-09 1.00045 0.241045
1003.46 3.86111e-09 1.00045 0.241062
1002.85 3.39763e-09 1.00045 0.241437
1002.91 3.37477e-09 1.00045 0.240925
1002.93 3.40908e-09 1.00045 0.241426
1002.92 3.40852e-09 1.00045 0.241387
1002.92 3.42214e-09 1.00045 0.241215
1002.92 3.39168e-09 1.00045 0.24088
1002.91 3.41255e-09 1.00045 0.240526
1002.93 3.42993e-09 1.00045 0.241062
1002.92 3.38791e-09 1.00045 0.240744
1002.91 3.39429e-09 1.00045 0.240744
1002.84 3.39512e-09 1.00045 0.241424
1002.93 3.40949e-09 1.00045 0.241469
1002.92 3.42611e-09 1.00045 0.241194
1002.92 3.42659e-09 1.00045 0.241213
1002.92 3.41752e-09 1.00045 0.241073
1002.91 3.62015e-09 1.00044 0.240677
1002.92 3.45813e-09 1.00045 0.240492
1002.91 3.49e-09 1.00045 0.240092
1002.92 3.38432e-09 1.00045 0.240782
1002.92 3.49087e-09 1.00045 0.240478