# vtk DataFile Version 2.0
Wound Healing Simulation
ASCII
DATASET UNSTRUCTURED_GRID
POINTS 3012 float
69.9759 18.75 4
67.2507 60.3285 4
69.976 18.75 2
73.0099 25.446 4
71.1327 20.9142 4
68.6801 16.6661 4
67.8239 19.9264 3.9786
67.2507 60.3286 2
71.1327 54.0858 4
68.6801 58.3339 4
65.6939 62.2254 4
65.3105 59.0004 3.97775
74.6784 42.3946 4
73.7221 47.2057 4
69.9759 18.75 0
73.0099 25.446 2
68.6801 16.6661 2
71.1327 20.9142 2
67.8244 19.93 2
74.6792 32.6053 4
73.7222 27.7943 4
72.1454 23.1494 4
70.6128 26.2213 3.97827
68.8841 21.9582 3.97906
67.2507 14.6715 4
66.6353 17.9727 3.97768
65.7922 21.0281 3.9677
67.2507 60.3285 0
71.1327 54.0858 2
68.6801 58.3339 2
65.694 62.2255 2
65.3118 58.9958 2
72.1454 51.8506 4
69.9759 56.25 4
68.8348 53.1131 3.97829
64.0165 64.0165 4
66.6091 57.1332 3.97835
63.8836 60.7645 3.97802
63.4958 57.7666 3.96862
60.3285 67.2507 4
74.6792 42.3947 2
73.7222 47.2057 2
74.9194 39.9526 4
74.2788 44.8158 4
72.1672 42.0857 3.9785
73.0099 49.554 4
71.248 46.598 3.97782
73.0099 25.446 0
71.1327 20.9142 0
68.6801 16.6661 0
67.8239 19.9264 0.0213986
74.6792 32.6053 2
73.7222 27.7943 2
67.2508 14.6715 2
72.1455 23.1494 2
70.6127 26.2218 2
66.6363 17.9773 2
68.8844 21.9604 2
65.7915 21.0292 2
74.9197 35.0474 4
74.2794 30.1841 4
72.184 32.9438 3.97883
71.2771 28.4318 3.97811
69.8141 24.0597 3.97884
68.3427 26.9532 3.9672
66.7579 22.9354 3.96741
65.694 12.7746 4
65.3216 16.105 3.97701
64.7086 19.1993 3.96812
63.852 22.0497 3.96523
71.1327 54.0858 0
65.6939 62.2254 0
68.6801 58.3339 0
65.3105 59.0004 0.022246
72.1455 51.8506 2
69.9759 56.25 2
68.8349 53.111 2
64.0165 64.0165 2
66.6099 57.1291 2
63.8855 60.7604 2
63.4947 57.7663 2
62.2254 65.694 4
58.8932 65.4135 3.9875
69.7674 50.9889 3.97803
67.7821 55.1671 3.97841
66.6447 52.2077 3.96702
62.3339 62.4256 3.98041
64.656 56.0285 3.96825
62.1979 59.3954 3.96829
61.8116 56.67 3.96402
58.3339 68.6801 4
60.3285 67.2508 2
73.7221 47.2057 0
74.6784 42.3946 0
74.9197 39.9526 2
74.2794 44.8159 2
72.1666 42.0855 2
73.0099 49.554 2
71.2478 46.5977 2
75 37.5 4
72.4046 39.8024 3.97931
71.7815 44.3529 3.97851
69.8006 41.79 3.96806
70.5737 48.8135 3.97769
68.9081 46.0144 3.96744
74.6792 32.6053 0
73.7222 27.7943 0
67.2507 14.6715 0
72.1454 23.1494 0
70.6128 26.2213 0.0217294
68.8841 21.9582 0.0209371
66.6353 17.9727 0.0223231
65.7922 21.0281 0.0323017
74.9197 35.0474 2
74.2794 30.1841 2
72.1833 32.9442 2
71.2768 28.4323 2
65.694 12.7745 2
65.3232 16.11 2
69.8141 24.061 2
68.3424 26.9539 2
64.7077 19.2003 2
66.7574 22.9364 2
63.8522 22.0502 2
72.4124 35.2246 3.97929
71.803 30.6767 3.97878
69.8369 33.2697 3.96824
68.9623 29.0398 3.96752
67.6069 24.9139 3.96724
66.1476 27.6466 3.96706
64.0165 10.9835 4
64.7149 23.8439 3.96591
63.8876 14.3297 3.97769
63.5078 17.4545 3.96859
62.8775 20.336 3.96435
62.0001 22.977 3.96727
60.6823 11.1003 3.98215
57.6094 11.4567 3.97334
72.1454 51.8506 0
69.9759 56.25 0
68.8348 53.1131 0.0217061
64.0165 64.0165 0
63.8836 60.7645 0.021978
66.6091 57.1332 0.0216546
63.4958 57.7666 0.0313828
62.2255 65.694 2
58.8953 65.4117 2
69.7673 50.9879 2
67.7825 55.1639 2
66.644 52.2069 2
62.3359 62.4219 2
64.655 56.0278 2
62.1969 59.3961 2
61.812 56.6702 2
60.6668 63.9752 3.9832
57.0241 66.7347 3.98926
57.5558 63.6857 3.97548
67.5028 50.1755 3.96684
65.6971 54.1712 3.96748
64.4894 51.3717 3.96548
60.769 60.9257 3.97098
62.7983 55.0568 3.96465
60.6478 58.144 3.96412
60.2949 55.7632 3.96425
56.25 69.9759 4
58.3339 68.6801 2
60.3285 67.2507 0
58.9198 9.65801 3.9843
62.2254 9.30607 4
73.0099 49.554 0
74.2788 44.8158 0
71.248 46.598 0.0221765
72.1672 42.0857 0.0214988
74.9194 39.9526 0
75 37.5 2
72.4045 39.8025 2
71.7813 44.3525 2
69.8 41.7897 2
70.5734 48.8131 2
68.908 46.0138 2
72.488 37.5124 3.97891
70.0382 39.658 3.9683
69.4268 43.9075 3.96798
67.5534 41.4939 3.96931
68.2614 48.1063 3.96695
66.6532 45.4305 3.96818
74.9197 35.0474 0
74.2794 30.1841 0
72.184 32.9438 0.021166
71.2771 28.4318 0.0218857
65.694 12.7746 0
65.3216 16.105 0.0229923
69.8141 24.0597 0.0211604
68.3427 26.9532 0.0327983
66.7579 22.9354 0.0325933
64.7086 19.1993 0.0318839
63.852 22.0497 0.0347699
72.4123 35.2247 2
71.8029 30.6773 2
69.8362 33.2702 2
68.9622 29.0404 2
64.0165 10.9835 2
63.8897 14.3345 2
63.5068 17.4554 2
67.6066 24.9147 2
66.1478 27.647 2
62.878 20.3363 2
64.7147 23.8444 2
61.9993 22.9777 2
60.685 11.1039 2
57.6113 11.4559 2
70.0549 35.3931 3.96829
69.4638 31.151 3.96791
67.6161 33.5966 3.96887
66.7244 29.6332 3.96759
65.4781 25.7124 3.96651
64.0197 28.2839 3.97147
62.3394 12.658 3.97974
62.751 24.6699 3.96877
62.1936 15.7974 3.96929
61.7962 18.7016 3.96377
61.1352 21.3772 3.96517
60.2714 23.7802 3.97027
59.2422 12.7991 3.97135
55.8721 10.2421 3.97598
56.3995 13.1477 3.97056
69.7674 50.9889 0.0219731
62.2254 65.694 0
58.8932 65.4135 0.0125038
67.7821 55.1671 0.0215899
66.6447 52.2077 0.0329809
62.3339 62.4256 0.0195866
62.1979 59.3954 0.0317071
64.656 56.0285 0.0317509
61.8116 56.67 0.0359822
60.6689 63.9723 2
57.0258 66.7335 2
57.5565 63.6863 2
67.5024 50.1748 2
65.6962 54.1705 2
64.4895 51.3714 2
60.7679 60.927 2
62.7989 55.0568 2
60.6475 58.1442 2
60.2957 55.7634 2
55.0701 67.9316 3.99082
59.2153 62.3511 3.97214
55.8028 64.905 3.97993
56.321 62.067 3.97299
65.275 49.3948 3.96631
63.6696 53.2797 3.96491
62.3213 50.6197 3.96774
59.3236 59.5383 3.96496
61.0144 54.2829 3.966
59.2595 56.9863 3.96292
59.1841 55.1515 3.96656
48.1006 68.5766 3.98643
50.9478 69.9314 3.99126
54.0858 71.1327 4
56.25 69.976 2
58.3339 68.6801 0
57.0571 8.33725 3.98609
60.3285 7.74928 4
58.9227 9.66078 2
62.2255 9.30602 2
70.5737 48.8135 0.0223097
71.7815 44.3529 0.0214925
68.9081 46.0144 0.0325553
69.8006 41.79 0.0319418
72.4046 39.8024 0.0206873
75 37.5 0
72.4874 37.5124 2
70.0381 39.658 2
69.4266 43.9071 2
67.5531 41.4937 2
68.2611 48.1056 2
66.6524 45.4301 2
70.1262 37.5225 3.96834
67.7956 39.5113 3.9693
67.1719 43.4634 3.96877
65.4269 41.1989 3.97568
66.0095 47.406 3.96737
64.5035 44.8247 3.97233
72.4124 35.2246 0.0207108
71.803 30.6767 0.0212235
69.8369 33.2697 0.0317608
68.9623 29.0398 0.0324788
64.0165 10.9835 0
63.8876 14.3297 0.0223146
63.5078 17.4545 0.0314104
67.6069 24.9139 0.032759
66.1476 27.6466 0.0329443
64.7149 23.8439 0.0340885
62.8775 20.336 0.0356548
62.0001 22.977 0.0327275
60.6823 11.1003 0.0178501
57.6094 11.4567 0.026656
70.0548 35.3934 2
69.4636 31.1515 2
67.616 33.5969 2
66.7242 29.6336 2
62.342 12.6625 2
62.1925 15.7979 2
61.7968 18.7017 2
65.4781 25.7129 2
64.0179 28.2845 2
61.134 21.3778 2
62.75 24.6706 2
60.2711 23.7811 2
59.2438 12.798 2
56.4005 13.1454 2
55.8735 10.2415 2
67.8359 35.5509 3.96932
67.2232 31.6304 3.96846
65.5778 33.9397 3.97485
64.533 30.2163 3.97235
63.4218 26.445 3.97015
62.0551 28.821 3.97584
60.7706 14.2406 3.97036
60.8743 25.3885 3.97264
60.5999 17.1486 3.96458
60.153 19.8538 3.96287
59.515 22.3144 3.96678
58.7737 24.3891 3.97318
54.0358 9.1431 3.97821
57.9017 14.3629 3.96948
54.7817 12.0346 3.97305
55.3016 14.6912 3.96766
67.5028 50.1755 0.033162
57.0241 66.7347 0.0107383
60.6668 63.9752 0.016799
57.5558 63.6857 0.0245244
65.6971 54.1712 0.0325215
64.4894 51.3717 0.0345242
60.769 60.9257 0.0290243
60.6478 58.144 0.0358779
62.7983 55.0568 0.0353506
60.2949 55.7632 0.0357489
55.0714 67.931 2
59.216 62.3542 2
55.8033 64.9054 2
56.3204 62.0694 2
65.275 49.3944 2
63.6698 53.2796 2
62.3207 50.6193 2
59.3225 59.5393 2
61.0148 54.2829 2
59.2625 56.9868 2
59.1863 55.1516 2
53.0421 68.9995 3.99112
53.9652 66.01 3.98281
57.8725 60.8474 3.97048
54.6802 63.1976 3.97531
55.2006 60.5849 3.97044
63.0585 48.6297 3.96934
61.6465 52.5448 3.96683
60.0801 49.9689 3.96988
57.9989 58.2377 3.96552
59.226 53.9079 3.96765
58.0441 55.7725 3.96202
50.1073 67.8549 3.98582
47.4618 66.5757 3.98224
46.0545 69.1557 3.98685
48.1009 68.5773 2
48.8018 70.7226 3.99145
50.9487 69.931 2
51.8506 72.1454 4
54.0858 71.1327 2
56.25 69.9759 0
55.1019 7.14162 3.9886
58.3339 6.31992 4
57.0596 8.33885 2
60.3286 7.74926 2
58.9198 9.65801 0.0157028
62.2254 9.30607 0
68.2614 48.1063 0.0330497
69.4268 43.9075 0.032019
66.6532 45.4305 0.0318175
67.5534 41.4939 0.0306909
70.0382 39.658 0.0317007
72.488 37.5124 0.0210888
70.1257 37.5225 2
67.7947 39.5111 2
67.1725 43.4631 2
65.4249 41.1984 2
66.0096 47.4057 2
64.5015 44.8242 2
67.8964 37.5232 3.96937
65.6667 39.3655 3.97603
65.0374 43.0079 3.97404
63.544 40.9098 3.97683
63.8175 46.6882 3.97072
62.5788 44.1799 3.97627
70.0549 35.3931 0.0317129
69.4638 31.151 0.0320892
67.6161 33.5966 0.0311283
66.7244 29.6332 0.0324062
62.3394 12.658 0.0202582
62.1936 15.7974 0.0307076
61.7962 18.7016 0.0362325
65.4781 25.7124 0.0334894
64.0197 28.2839 0.028532
62.751 24.6699 0.0312315
61.1352 21.3772 0.0348276
60.2714 23.7802 0.0297298
59.2422 12.7991 0.028648
56.3995 13.1477 0.0294385
55.8721 10.2421 0.0240219
67.8349 35.5511 2
67.2238 31.6307 2
65.5751 33.9402 2
64.5309 30.2169 2
60.7707 14.2413 2
60.599 17.149 2
60.1535 19.854 2
63.4206 26.4457 2
62.0527 28.8219 2
59.5165 22.3151 2
60.8736 25.3894 2
58.773 24.3905 2
57.9021 14.3613 2
55.3023 14.6903 2
54.0371 9.14157 2
54.7828 12.0317 2
65.7606 35.6739 3.97574
65.0541 32.1732 3.97324
64.1006 34.2688 3.97684
62.3757 30.6745 3.9768
61.4599 27.1204 3.97386
60.5971 29.1971 3.97714
59.2995 15.6947 3.96591
59.0974 25.8654 3.97588
59.0882 18.3905 3.96197
58.6186 20.9109 3.96351
58.0864 23.1657 3.96793
57.7397 24.7452 3.97446
52.1112 8.15839 3.98159
53.0544 11.0331 3.97427
56.6611 15.7829 3.96743
53.8006 13.7186 3.97127
54.3564 16.0501 3.96692
55.0701 67.9316 0.00917637
65.275 49.3948 0.0336903
55.8028 64.905 0.0200706
59.2153 62.3511 0.0278632
56.321 62.067 0.0270132
63.6696 53.2797 0.035091
62.3213 50.6197 0.032265
59.3236 59.5383 0.0350425
59.2595 56.9863 0.0370834
61.0144 54.2829 0.0339999
59.1841 55.1515 0.0334381
53.0431 68.9992 2
53.9657 66.0106 2
57.8718 60.8498 2
54.6799 63.1984 2
55.2003 60.5867 2
63.0575 48.6292 2
61.6467 52.5447 2
60.0802 49.9683 2
57.998 58.2386 2
59.2283 53.9079 2
58.0416 55.7714 2
52.0686 66.9977 3.98522
52.9513 64.2108 3.97948
56.633 59.4611 3.96793
53.673 61.6021 3.9751
[...]
POINT_DATA 3012
SCALARS rho_c_phif_kappa float 4
LOOKUP_TABLE default
1000 0 1.00173 0.265384
1000 0 1.00144 0.265721
1000 0 1.00173 0.265333
1000 0 1.00173 0.265714
1000 0 1.00173 0.265443
1000 0 1.00173 0.265422
1009.65 1.07578e-08 1.00199 0.264433
1000 0 1.00144 0.265754
1000 0 1.00144 0.265956
1000 0 1.00144 0.265741
1000 0 1.00173 0.265206
1009.62 1.05549e-08 1.00214 0.264483
1000 0 1.00172 0.265974
1000 0 1.00173 0.266543
1000 0 1.00173 0.265257
1000 0 1.00173 0.266008
1000 0 1.00173 0.265258
1000 0 1.00173 0.265521
1009.6 1.07829e-08 1.00199 0.264502
1000 0 1.00144 0.266095
1000 0 1.00173 0.265814
1000 0 1.00173 0.26557
1009.6 1.08679e-08 1.00198 0.265091
1009.63 1.08029e-08 1.00198 0.264646
1000 0 1.00174 0.265525
1009.68 1.07126e-08 1.00199 0.264205
1010.24 1.18151e-08 1.00223 0.262543
1000 0 1.00144 0.265829
1000 0 1.00159 0.265695
1000 0 1.00159 0.265496
1000 0 1.00144 0.265944
1009.66 1.0586e-08 1.00214 0.264437
1000 0 1.00173 0.265518
1000 0 1.00173 0.265111
1009.64 1.08199e-08 1.00199 0.264475
1000 0 1.00144 0.266169
1009.61 1.06353e-08 1.00199 0.264544
1009.66 1.05143e-08 1.00214 0.264563
1010.27 1.18155e-08 1.00223 0.262618
1000 0 1.00144 0.266424
1000 0 1.00144 0.266089
1000 0 1.00158 0.266281
1000 0 1.00144 0.266116
1000 0 1.00173 0.266625
1009.55 1.08837e-08 1.00212 0.26516
1000 0 1.00144 0.266502
1009.61 1.09143e-08 1.00198 0.264876
1000 0 1.00173 0.266349
1000 0 1.00173 0.265598
1000 0 1.00174 0.265077
1009.65 1.07578e-08 1.00198 0.264574
1000 0 1.00158 0.266343
1000 0 1.00173 0.266151
1000 0 1.00174 0.265296
1000 0 1.00173 0.265778
1009.43 1.08898e-08 1.00198 0.264946
1009.68 1.07411e-08 1.00199 0.264355
1009.53 1.0825e-08 1.00198 0.264631
1010.25 1.1811e-08 1.00223 0.262423
1000 0 1.00144 0.266139
1000 0 1.00173 0.265886
1009.54 1.08614e-08 1.00198 0.265426
1009.58 1.08797e-08 1.00198 0.265234
1009.62 1.0842e-08 1.00198 0.264874
1010.21 1.17984e-08 1.00222 0.262813
1010.23 1.18083e-08 1.00222 0.262403
1000 0 1.00174 0.265724
1009.72 1.06735e-08 1.00199 0.263985
1010.26 1.18248e-08 1.00223 0.262529
1010.06 1.1629e-08 1.0022 0.259414
1000 0 1.00144 0.265663
1000 0 1.00144 0.266102
1000 0 1.00144 0.265645
1009.62 1.05549e-08 1.00214 0.26439
1000 0 1.00144 0.265793
1000 0 1.00144 0.26557
1009.54 1.08428e-08 1.00213 0.264588
1000 0 1.00159 0.265809
1009.61 1.06639e-08 1.00214 0.264508
1009.72 1.05439e-08 1.00207 0.264518
1010.26 1.18113e-08 1.00223 0.26267
1000 0 1.00144 0.266259
1009.92 1.05506e-08 1.00216 0.265006
1009.65 1.08802e-08 1.00213 0.264739
1009.63 1.07329e-08 1.00213 0.264626
1010.22 1.1804e-08 1.00222 0.262261
1009.73 1.05029e-08 1.002 0.264595
1010.26 1.18125e-08 1.00223 0.262485
1010.29 1.18284e-08 1.00223 0.262742
1010.11 1.1683e-08 1.00221 0.260771
1000 0 1.00144 0.26656
1000 0 1.00144 0.266508
1000 0 1.00144 0.265989
1000 0 1.00144 0.266095
1000 0 1.00144 0.266112
1000 0 1.00158 0.266346
1009.32 1.09065e-08 1.00205 0.265096
1000 0 1.00158 0.266145
1009.46 1.09372e-08 1.00206 0.265005
1000 0 1.00144 0.26613
1009.52 1.08623e-08 1.00212 0.265235
1009.58 1.09025e-08 1.00198 0.264954
1010.19 1.179e-08 1.00221 0.263038
1009.64 1.09107e-08 1.00198 0.264764
1010.2 1.1797e-08 1.00221 0.262862
1000 0 1.00172 0.265967
1000 0 1.00172 0.266549
1000 0 1.00174 0.265078
1000 0 1.00173 0.265997
1009.6 1.08679e-08 1.00198 0.264789
1009.63 1.08029e-08 1.00198 0.264614
1009.68 1.07126e-08 1.00199 0.264505
1010.24 1.18151e-08 1.00223 0.262316
1000 0 1.00144 0.266106
1000 0 1.00173 0.266241
1009.32 1.08847e-08 1.00205 0.265156
1009.42 1.09027e-08 1.00198 0.265094
1000 0 1.00159 0.265588
1009.75 1.07044e-08 1.00199 0.264277
1009.48 1.08632e-08 1.00198 0.264773
1010.23 1.1795e-08 1.00222 0.262746
1010.26 1.18197e-08 1.00223 0.262364
1010.24 1.18047e-08 1.00222 0.262422
1010.06 1.16293e-08 1.0022 0.259392
1009.5 1.08526e-08 1.00212 0.26531
1009.56 1.08765e-08 1.00198 0.265304
1010.19 1.17898e-08 1.00221 0.263134
1010.2 1.17953e-08 1.00221 0.262937
1010.22 1.18027e-08 1.00222 0.262528
1010.03 1.15864e-08 1.0022 0.260377
1000 0 1.00144 0.266163
1010.05 1.16112e-08 1.0022 0.259467
1009.77 1.06428e-08 1.00215 0.264214
1010.28 1.18392e-08 1.00223 0.262392
1010.08 1.165e-08 1.00221 0.259493
1010.03 1.15762e-08 1.0022 0.256526
1009.89 1.06172e-08 1.00216 0.264871
1010.33 1.18801e-08 1.00224 0.264338
1000 0 1.00144 0.265789
1000 0 1.00144 0.265614
1009.64 1.08199e-08 1.00213 0.264636
1000 0 1.00144 0.266298
1009.66 1.05143e-08 1.00214 0.264399
1009.61 1.06353e-08 1.00214 0.264491
1010.27 1.18155e-08 1.00223 0.262713
1000 0 1.00144 0.266366
1009.93 1.05643e-08 1.00216 0.265155
1009.51 1.09019e-08 1.00206 0.264707
1009.57 1.07583e-08 1.00206 0.264561
1010.24 1.18005e-08 1.00222 0.262274
1009.77 1.05278e-08 1.00215 0.264572
1010.26 1.18082e-08 1.00223 0.262544
1010.28 1.18247e-08 1.00223 0.262799
1010.11 1.1684e-08 1.00221 0.260599
1009.82 1.05212e-08 1.00215 0.264722
1010.02 1.05792e-08 1.00217 0.265272
1010.34 1.18701e-08 1.00224 0.264706
1010.21 1.18011e-08 1.00222 0.262396
1010.24 1.1808e-08 1.00222 0.262289
1010.04 1.16048e-08 1.0022 0.259082
1010.31 1.18465e-08 1.00223 0.263429
1010.09 1.16581e-08 1.00221 0.259565
1010.12 1.17075e-08 1.00222 0.261131
1010.07 1.16224e-08 1.00221 0.25865
1000 0 1.00144 0.26659
1000 0 1.00144 0.266552
1000 0 1.00144 0.266504
1009.97 1.06305e-08 1.00216 0.265139
1000 0 1.00144 0.266328
1000 0 1.00144 0.265914
1000 0 1.00144 0.266049
1009.61 1.09143e-08 1.00213 0.265151
1009.55 1.08837e-08 1.00212 0.26527
1000 0 1.00144 0.266131
1000 0 1.00144 0.266126
1009.49 1.08836e-08 1.00212 0.265251
1009.57 1.09244e-08 1.00205 0.265083
1010.23 1.17862e-08 1.00221 0.263038
1009.47 1.09329e-08 1.00213 0.26497
1010.22 1.17933e-08 1.00221 0.262848
1009.51 1.08464e-08 1.00212 0.265267
1010.19 1.17859e-08 1.00221 0.263059
1010.2 1.17943e-08 1.00221 0.263001
1010.03 1.15782e-08 1.00219 0.261366
1010.21 1.17986e-08 1.00221 0.262635
1010.03 1.15802e-08 1.0022 0.260539
1000 0 1.00144 0.266109
1000 0 1.00173 0.266629
1009.54 1.08614e-08 1.00212 0.265189
1009.58 1.08797e-08 1.00198 0.264931
1000 0 1.00144 0.265906
1009.72 1.06735e-08 1.002 0.264572
1009.62 1.0842e-08 1.00198 0.26467
1010.21 1.17984e-08 1.00222 0.262671
1010.23 1.18083e-08 1.00223 0.262441
1010.26 1.18248e-08 1.00223 0.262206
1010.06 1.1629e-08 1.0022 0.259366
1009.46 1.0874e-08 1.00212 0.265283
1009.54 1.08985e-08 1.00198 0.265167
1010.22 1.17861e-08 1.00221 0.263082
1010.22 1.17917e-08 1.00222 0.262952
1000 0 1.00144 0.26611
1009.81 1.06712e-08 1.00208 0.264373
1010.27 1.18345e-08 1.00223 0.262405
1010.23 1.17994e-08 1.00222 0.262484
1010.03 1.15866e-08 1.0022 0.260196
1010.08 1.16506e-08 1.00221 0.259414
1010.05 1.16115e-08 1.0022 0.259522
1010.03 1.15764e-08 1.0022 0.256575
1009.92 1.06394e-08 1.00216 0.264736
1010.32 1.18764e-08 1.00224 0.264347
1010.19 1.17866e-08 1.00221 0.263103
1010.2 1.17926e-08 1.00221 0.263094
1010.03 1.15795e-08 1.0022 0.261487
1010.03 1.15801e-08 1.0022 0.260429
1010.04 1.15971e-08 1.0022 0.259697
1010 1.15448e-08 1.00219 0.257987
1009.82 1.06198e-08 1.00215 0.264539
1010.02 1.15623e-08 1.0022 0.256624
1010.3 1.18576e-08 1.00223 0.262909
1010.1 1.16754e-08 1.00221 0.260001
1010.04 1.15933e-08 1.0022 0.256613
1010.02 1.15721e-08 1.0022 0.254841
1010.32 1.18733e-08 1.00224 0.263828
1010.33 1.18865e-08 1.00224 0.265021
1010.15 1.17535e-08 1.00222 0.263318
1009.65 1.08802e-08 1.00213 0.264808
1000 0 1.00144 0.26647
1009.92 1.05506e-08 1.00216 0.265325
1009.63 1.07329e-08 1.00213 0.264527
1010.22 1.1804e-08 1.00222 0.262295
1009.73 1.05029e-08 1.00215 0.264723
1010.29 1.18284e-08 1.00223 0.262848
1010.26 1.18125e-08 1.00223 0.262597
1010.11 1.1683e-08 1.00221 0.260436
1009.85 1.05408e-08 1.00215 0.264888
1010.02 1.0591e-08 1.00217 0.265354
1010.33 1.18672e-08 1.00224 0.26477
1010.23 1.17977e-08 1.00222 0.262391
1010.25 1.18042e-08 1.00222 0.262324
1010.04 1.16053e-08 1.0022 0.259101
1010.31 1.18435e-08 1.00223 0.263455
1010.09 1.16588e-08 1.00221 0.259729
1010.12 1.1708e-08 1.00222 0.261162
1010.07 1.16227e-08 1.00221 0.258234
1010.1 1.06097e-08 1.00217 0.265361
1010.32 1.18579e-08 1.00224 0.264206
1010.34 1.18753e-08 1.00224 0.26542
1010.16 1.17682e-08 1.00222 0.263694
1010.03 1.15891e-08 1.0022 0.259342
1010.06 1.1631e-08 1.0022 0.259136
1010.01 1.15345e-08 1.0022 0.255842
1010.14 1.17341e-08 1.00222 0.262096
1010.04 1.15899e-08 1.0022 0.25584
1010.08 1.16435e-08 1.00221 0.259135
1010.06 1.16049e-08 1.00221 0.256765
1010.32 1.18894e-08 1.00224 0.266127
1010.25 1.06683e-08 1.00218 0.265265
1000 0 1.00144 0.266587
1000 0 1.00144 0.266563
1000 0 1.00144 0.26653
1010.07 1.06604e-08 1.00217 0.265284
1000 0 1.00144 0.266424
1009.99 1.06468e-08 1.00216 0.265004
1000 0 1.00144 0.266247
1009.64 1.09107e-08 1.00213 0.264994
1009.58 1.09025e-08 1.00213 0.265238
1010.2 1.1797e-08 1.00221 0.262832
1010.19 1.179e-08 1.00221 0.263038
1009.52 1.08623e-08 1.00212 0.265278
1000 0 1.00144 0.26613
1009.23 1.087e-08 1.00212 0.265271
1010.19 1.17824e-08 1.00221 0.263059
1010.2 1.17907e-08 1.00221 0.262986
1010.03 1.15783e-08 1.00219 0.261357
1010.23 1.17951e-08 1.00221 0.262617
1010.03 1.15804e-08 1.0022 0.260564
1010.18 1.17847e-08 1.00221 0.263081
1010.03 1.15787e-08 1.00219 0.261537
1010.03 1.15801e-08 1.0022 0.261094
1009.99 1.15256e-08 1.00219 0.259629
1010.03 1.15819e-08 1.0022 0.259897
1010 1.15397e-08 1.00219 0.258412
1009.5 1.08526e-08 1.00212 0.265256
1009.56 1.08765e-08 1.00198 0.265008
1010.19 1.17898e-08 1.00221 0.263031
1010.2 1.17953e-08 1.00222 0.262954
1000 0 1.00144 0.266044
1009.77 1.06428e-08 1.002 0.264318
1010.28 1.18392e-08 1.00224 0.262407
1010.22 1.18027e-08 1.00222 0.262436
1010.03 1.15864e-08 1.0022 0.260005
1010.05 1.16112e-08 1.00221 0.259581
1010.08 1.165e-08 1.00221 0.259309
1010.03 1.15762e-08 1.0022 0.256614
1009.89 1.06172e-08 1.00216 0.264614
1010.33 1.18801e-08 1.00224 0.264349
1010.19 1.17832e-08 1.00221 0.263071
1010.2 1.17893e-08 1.00221 0.263059
1010.03 1.15796e-08 1.0022 0.261439
1010.03 1.15804e-08 1.0022 0.260591
1009.86 1.06462e-08 1.00215 0.264441
1010.29 1.1853e-08 1.00223 0.262831
1010.1 1.16763e-08 1.00221 0.260061
1010.04 1.15973e-08 1.0022 0.259789
1010 1.15445e-08 1.00219 0.257747
1010.04 1.15935e-08 1.0022 0.256307
1010.02 1.15623e-08 1.0022 0.256636
1010.02 1.1572e-08 1.0022 0.254713
1010.32 1.18702e-08 1.00224 0.263923
1010.15 1.17533e-08 1.00222 0.263451
1010.33 1.18831e-08 1.00224 0.264922
1010.03 1.15785e-08 1.0022 0.261635
1010.03 1.15804e-08 1.0022 0.26106
1009.99 1.15363e-08 1.00219 0.259918
1010 1.15376e-08 1.00219 0.258221
1010.01 1.15505e-08 1.00219 0.256825
1010 1.15409e-08 1.00219 0.255446
1010.32 1.18675e-08 1.00223 0.263441
1010.01 1.15571e-08 1.0022 0.2543
1010.12 1.1705e-08 1.00222 0.261356
1010.06 1.16151e-08 1.00221 0.256104
1010.04 1.15819e-08 1.0022 0.254155
1010.01 1.15728e-08 1.0022 0.252989
1010.33 1.18919e-08 1.00224 0.265513
1010.14 1.17437e-08 1.00222 0.263061
1010.15 1.17598e-08 1.00222 0.263864
1010.14 1.17017e-08 1.00222 0.262659
1010.21 1.18011e-08 1.00222 0.262391
1010.02 1.05792e-08 1.00217 0.265418
1009.82 1.05212e-08 1.00215 0.265081
1010.34 1.18701e-08 1.00224 0.264824
1010.24 1.1808e-08 1.00222 0.262363
1010.04 1.16048e-08 1.0022 0.259117
1010.31 1.18465e-08 1.00223 0.263479
1010.12 1.17075e-08 1.00222 0.261177
1010.09 1.16581e-08 1.00221 0.259896
1010.07 1.16224e-08 1.00221 0.257843
1010.1 1.06191e-08 1.00217 0.265389
1010.32 1.18551e-08 1.00224 0.264175
1010.33 1.18731e-08 1.00224 0.265532
1010.16 1.17686e-08 1.00222 0.26369
1010.03 1.15895e-08 1.0022 0.259355
1010.06 1.16316e-08 1.0022 0.259181
1010.01 1.15344e-08 1.0022 0.25584
1010.14 1.17355e-08 1.00222 0.262185
1010.05 1.15903e-08 1.0022 0.256149
1010.08 1.16432e-08 1.00221 0.258954
1010.06 1.16053e-08 1.00221 0.256854
1010.18 1.06364e-08 1.00218 0.265339
1010.33 1.18779e-08 1.00224 0.265992
1010.15 1.17552e-08 1.00222 0.263207
1010.16 1.17733e-08 1.00222 0.264383
1010.15 1.17162e-08 1.00222 0.262633
1010 1.15124e-08 1.00219 0.256258
1010.02 1.156e-08 1.0022 0.255342
1010.02 1.16562e-08 1.0022 0.253182
1010.11 1.16731e-08 1.00222 0.259713
1010.04 1.15909e-08 1.0022 0.252909
1010.07 1.15987e-08 1.00221 0.256549
1010.32 1.18838e-08 1.00224 0.26618
1010.14 1.17633e-08 1.00222 0.26622
1010.31 1.18958e-08 1.00223 0.266098
1010.32 1.1888e-08 1.00224 0.266132
1010.32 1.07014e-08 1.00203 0.26556
1010.25 1.06775e-08 1.0021 0.265524
1000 0 1.00176 0.265878
1000 0 1.00144 0.266571
1000 0 1.00144 0.266546
1010.17 1.0704e-08 1.00218 0.265385
1000 0 1.00144 0.266503
1010.08 1.06748e-08 1.00217 0.265199
1000 0 1.00144 0.26638
1009.97 1.06305e-08 1.00216 0.264892
1000 0 1.00144 0.26619
1010.21 1.17986e-08 1.00221 0.262601
1010.2 1.17943e-08 1.00221 0.262975
1010.03 1.15802e-08 1.0022 0.260573
1010.03 1.15782e-08 1.00219 0.261348
1010.19 1.17859e-08 1.00221 0.263057
1009.51 1.08464e-08 1.00212 0.26525
1010.22 1.17809e-08 1.00221 0.26308
1010.03 1.15786e-08 1.00219 0.26153
1010.03 1.15804e-08 1.0022 0.261055
1009.99 1.15249e-08 1.00219 0.259516
1010.03 1.15823e-08 1.0022 0.259894
1010 1.15394e-08 1.00219 0.258439
1010.03 1.15804e-08 1.00219 0.261595
1009.99 1.15011e-08 1.00219 0.260078
1010 1.15281e-08 1.00219 0.259034
1010 1.15808e-08 1.00219 0.258463
1010 1.15318e-08 1.00219 0.257218
1009.99 1.15355e-08 1.00219 0.255711
1010.19 1.17866e-08 1.00221 0.263045
1010.2 1.17926e-08 1.00222 0.263035
1010.03 1.15795e-08 1.0022 0.261375
1010.03 1.15801e-08 1.0022 0.260759
1009.82 1.06198e-08 1.00215 0.264342
1010.3 1.18576e-08 1.00223 0.262754
1010.1 1.16754e-08 1.00221 0.260147
1010.04 1.15971e-08 1.0022 0.25989
1010 1.15448e-08 1.00219 0.257508
1010.02 1.15623e-08 1.0022 0.256649
1010.04 1.15933e-08 1.0022 0.25604
1010.02 1.15721e-08 1.0022 0.254602
1010.32 1.18733e-08 1.00224 0.264009
1010.15 1.17535e-08 1.00222 0.26353
1010.33 1.18865e-08 1.00224 0.264847
1010.03 1.15784e-08 1.0022 0.2616
1010.03 1.15806e-08 1.0022 0.261003
1009.99 1.15358e-08 1.00219 0.259791
1010 1.15372e-08 1.00219 0.258339
1010.31 1.18641e-08 1.00223 0.263454
1010.12 1.17047e-08 1.00222 0.261276
1010.06 1.16161e-08 1.00221 0.256376
1010.01 1.15502e-08 1.0022 0.257015
1010 1.15404e-08 1.00219 0.255299
1010.04 1.15817e-08 1.0022 0.253919
1010.01 1.15569e-08 1.0022 0.254328
1010.01 1.15726e-08 1.0022 0.253079
1010.15 1.17454e-08 1.00222 0.263001
1010.14 1.17021e-08 1.00222 0.262595
1010.32 1.18893e-08 1.00224 0.265476
1010.15 1.17601e-08 1.00222 0.264037
1009.99 1.15135e-08 1.00219 0.260142
1009.99 1.15261e-08 1.00219 0.259179
1009.99 1.15456e-08 1.00219 0.258707
1009.99 1.15441e-08 1.00219 0.255432
1010 1.15516e-08 1.00219 0.254753
1009.99 1.15435e-08 1.00219 0.254282
1010.14 1.17281e-08 1.00222 0.262518
1010.01 1.15725e-08 1.00219 0.252303
1010.09 1.16456e-08 1.00221 0.257935
1010.05 1.15886e-08 1.00221 0.253024
1010.03 1.16183e-08 1.0022 0.252533
1010 1.15239e-08 1.0022 0.25265
1010.32 1.18976e-08 1.00224 0.26585
1010.15 1.17617e-08 1.00222 0.264442
1010.12 1.16883e-08 1.00222 0.262114
1010.15 1.17169e-08 1.00222 0.262858
1010.14 1.17002e-08 1.00222 0.261883
1010.1 1.06097e-08 1.00217 0.265423
1010.03 1.15891e-08 1.0022 0.259375
1010.34 1.18753e-08 1.00224 0.26566
1010.32 1.18579e-08 1.00224 0.26413
1010.16 1.17682e-08 1.00222 0.263684
1010.06 1.1631e-08 1.0022 0.259216
1010.01 1.15345e-08 1.0022 0.255837
1010.14 1.17341e-08 1.00222 0.262289
1010.08 1.16435e-08 1.00221 0.258669
1010.04 1.15899e-08 1.00221 0.25645
1010.06 1.16049e-08 1.00221 0.256904
1010.18 1.06451e-08 1.00218 0.265338
1010.33 1.18762e-08 1.00224 0.266069
1010.15 1.17569e-08 1.00222 0.263216
1010.16 1.17737e-08 1.00222 0.264472
1010.15 1.17165e-08 1.00222 0.262612
1010 1.15127e-08 1.00219 0.256207
1010.02 1.15596e-08 1.0022 0.25534
1010.02 1.16567e-08 1.0022 0.253113
1010.11 1.16737e-08 1.00222 0.259861
1010.04 1.15901e-08 1.0022 0.253212
1010.07 1.15993e-08 1.00221 0.256533
1010.33 1.18803e-08 1.00224 0.266179
1010.15 1.17718e-08 1.00222 0.265294
1010.13 1.16983e-08 1.00222 0.261371
1010.16 1.17319e-08 1.00223 0.263318
1010.15 1.17072e-08 1.00222 0.262088
1010.02 1.17385e-08 1.00219 0.254519
1010.02 1.15562e-08 1.0022 0.251984
1009.94 1.13007e-08 1.00219 0.250637
1010.1 1.16195e-08 1.00222 0.256785
1010.06 1.16962e-08 1.0022 0.252918
1010.32 1.18826e-08 1.00224 0.266198
1010.14 1.17647e-08 1.00222 0.266203
1010.14 1.17638e-08 1.00222 0.266201
1010.16 1.17293e-08 1.00223 0.265462
1010.14 1.17628e-08 1.00222 0.266161
1010.3 1.19032e-08 1.00223 0.266101
1010.31 1.18943e-08 1.00223 0.266094
1010.39 1.07444e-08 1.00203 0.265544
1010.32 1.18894e-08 1.00223 0.266138
1010.32 1.07093e-08 1.00203 0.265701
1000 0 1.00176 0.265854
1010.25 1.06683e-08 1.00203 0.265685
1000 0 1.0016 0.266019
1000 0 1.00144 0.266557
1010.26 1.07469e-08 1.00218 0.265465
1010.17 1.07136e-08 1.00218 0.265309
1000 0 1.00144 0.266531
1000 0 1.00144 0.266474
1010.07 1.06604e-08 1.00217 0.2651
1000 0 1.00144 0.266304
1010.03 1.15819e-08 1.0022 0.259887
1010.03 1.15801e-08 1.0022 0.261034
1010 1.15397e-08 1.00219 0.258473
1009.99 1.15256e-08 1.00219 0.259402
1010.03 1.15787e-08 1.00219 0.261523
1010.18 1.17847e-08 1.00221 0.263074
1010.02 1.15807e-08 1.00219 0.261598
1009.99 1.15008e-08 1.00219 0.260118
1009.99 1.15278e-08 1.00219 0.259037
1010 1.15811e-08 1.00219 0.258324
1010 1.15316e-08 1.00219 0.257187
1009.99 1.15354e-08 1.00219 0.255799
1009.99 1.14825e-08 1.00219 0.26034
1010.01 1.16554e-08 1.00219 0.259188
1010 1.16007e-08 1.00219 0.256967
1010 1.17043e-08 1.00219 0.257494
1010.01 1.15965e-08 1.00219 0.255704
1010.02 1.16989e-08 1.00219 0.254308
1010.03 1.15785e-08 1.00219 0.261566
1010.03 1.15804e-08 1.0022 0.26092
1009.99 1.15363e-08 1.00219 0.259671
1010 1.15376e-08 1.00219 0.258462
1010.32 1.18675e-08 1.00223 0.263459
1010.12 1.1705e-08 1.00222 0.261196
1010.06 1.16151e-08 1.00221 0.256635
1010.01 1.15505e-08 1.0022 0.257201
1010 1.15409e-08 1.00219 0.255163
1010.01 1.15571e-08 1.0022 0.254357
1010.04 1.15819e-08 1.0022 0.253625
1010.01 1.15728e-08 1.0022 0.253143
1010.14 1.17437e-08 1.00222 0.262967
1010.14 1.17017e-08 1.00222 0.26257
1010.33 1.18919e-08 1.00224 0.265425
1010.15 1.17598e-08 1.00222 0.264133
1009.99 1.15133e-08 1.00219 0.260148
1009.99 1.1526e-08 1.00219 0.259167
1009.99 1.15459e-08 1.00219 0.258665
1009.99 1.15444e-08 1.00219 0.255657
1010.14 1.17297e-08 1.00222 0.262438
1010.09 1.16454e-08 1.00221 0.258237
1010.05 1.15886e-08 1.00221 0.252861
1010 1.15516e-08 1.00219 0.254916
1009.99 1.1544e-08 1.00219 0.25421
1010.03 1.16182e-08 1.0022 0.252372
1010.01 1.15726e-08 1.00219 0.252311
1010 1.15236e-08 1.0022 0.252698
1010.12 1.16887e-08 1.00222 0.262059
1010.14 1.16986e-08 1.00222 0.26179
1010.15 1.17171e-08 1.00222 0.262895
1010.32 1.18952e-08 1.00223 0.265787
1010.15 1.17619e-08 1.00222 0.264466
1010.01 1.16644e-08 1.00219 0.258997
1010 1.15717e-08 1.00219 0.25747
1009.98 1.15216e-08 1.00219 0.253578
1009.99 1.15442e-08 1.00219 0.253247
1010.11 1.1673e-08 1.00222 0.260862
1009.98 1.14894e-08 1.00219 0.250063
1010.08 1.16096e-08 1.00221 0.254754
1010.06 1.16911e-08 1.0022 0.250139
1010.01 1.15396e-08 1.0022 0.251309
1010.31 1.19047e-08 1.00223 0.266006
1010.15 1.17643e-08 1.00223 0.264897
1010.16 1.17159e-08 1.00222 0.263623
1010.12 1.168e-08 1.00222 0.261003
1010.15 1.17143e-08 1.00222 0.261947
1010.13 1.17046e-08 1.00222 0.260519
1010.18 1.06364e-08 1.00218 0.265307
1010.33 1.18779e-08 1.00224 0.266144
1010 1.15124e-08 1.00219 0.256153
1010.16 1.17733e-08 1.00222 0.264558
1010.15 1.17552e-08 1.00222 0.263221
1010.15 1.17162e-08 1.00222 0.262592
1010.02 1.156e-08 1.0022 0.255343
1010.02 1.16562e-08 1.00219 0.253054
1010.11 1.16731e-08 1.00222 0.26002
1010.07 1.15987e-08 1.00221 0.256552
1010.04 1.15909e-08 1.0022 0.253504
1010.32 1.18785e-08 1.00224 0.26622
1010.15 1.1772e-08 1.00222 0.265354
1010.13 1.1699e-08 1.00222 0.26149
1010.16 1.17318e-08 1.00223 0.263398
1010.15 1.17077e-08 1.00222 0.26192
1010.02 1.17359e-08 1.00219 0.25446
1010.02 1.15598e-08 1.0022 0.252027
1009.95 1.12973e-08 1.00219 0.250577
1010.1 1.16205e-08 1.00222 0.256658
1010.06 1.17e-08 1.0022 0.252808
1010.15 1.17677e-08 1.00222 0.26592
1010.17 1.17341e-08 1.00223 0.263985