# vtk DataFile Version 2.0
Wound Healing Simulation
ASCII
DATASET UNSTRUCTURED_GRID
POINTS 3012 float
69.9759 18.75 4
67.2507 60.3285 4
69.976 18.75 2
73.0099 25.446 4
71.1327 20.9142 4
68.6801 16.6661 4
67.8239 19.9264 3.97869
67.2507 60.3286 2
71.1327 54.0858 4
68.6801 58.3339 4
65.6939 62.2254 4
65.3106 59.0005 3.97783
74.6784 42.3946 4
73.7221 47.2057 4
69.9759 18.75 0
73.0099 25.446 2
68.6801 16.6661 2
71.1327 20.9142 2
67.8245 19.9299 2
74.6792 32.6053 4
73.7222 27.7943 4
72.1454 23.1494 4
70.6128 26.2212 3.97835
68.8842 21.9582 3.97915
67.2507 14.6715 4
66.6353 17.9727 3.97778
65.7923 21.0281 3.9678
67.2507 60.3285 0
71.1327 54.0858 2
68.6801 58.3339 2
65.694 62.2255 2
65.3119 58.9959 2
72.1454 51.8506 4
69.9759 56.25 4
68.8348 53.1131 3.97838
64.0165 64.0165 4
66.6091 57.1333 3.97842
63.8836 60.7645 3.97811
63.4959 57.7667 3.96869
60.3285 67.2507 4
74.6792 42.3947 2
73.7222 47.2057 2
74.9194 39.9526 4
74.2788 44.8158 4
72.1673 42.0857 3.97856
73.0099 49.554 4
71.248 46.598 3.97789
73.0099 25.446 0
71.1327 20.9142 0
68.6801 16.6661 0
67.8239 19.9264 0.0213084
74.6792 32.6053 2
73.7222 27.7943 2
67.2508 14.6715 2
72.1455 23.1494 2
70.6127 26.2218 2
66.6363 17.9772 2
68.8844 21.9604 2
65.7915 21.0291 2
74.9197 35.0474 4
74.2794 30.1841 4
72.184 32.9438 3.97889
71.2771 28.4318 3.97818
69.8141 24.0597 3.97893
68.3427 26.9532 3.96728
66.758 22.9353 3.9675
65.694 12.7746 4
65.3216 16.1049 3.97709
64.7087 19.1993 3.96822
63.8534 22.0492 3.96528
71.1327 54.0858 0
65.6939 62.2254 0
68.6801 58.3339 0
65.3106 59.0005 0.0221739
72.1455 51.8506 2
69.9759 56.25 2
68.8349 53.111 2
64.0165 64.0165 2
66.61 57.1291 2
63.8855 60.7604 2
63.4948 57.7664 2
62.2254 65.694 4
58.8932 65.4135 3.98762
69.7674 50.9889 3.97811
67.7821 55.1671 3.97849
66.6448 52.2077 3.9671
62.3339 62.4256 3.98054
64.6561 56.0285 3.96832
62.198 59.3955 3.96834
61.8121 56.6703 3.96409
58.3339 68.6801 4
60.3285 67.2508 2
73.7221 47.2057 0
74.6784 42.3946 0
74.9197 39.9526 2
74.2794 44.8159 2
72.1667 42.0855 2
73.0099 49.554 2
71.2478 46.5977 2
75 37.5 4
72.4046 39.8024 3.97936
71.7815 44.3529 3.97857
69.8007 41.79 3.96812
70.5737 48.8135 3.97777
68.9082 46.0144 3.96749
74.6792 32.6053 0
73.7222 27.7943 0
67.2507 14.6715 0
72.1454 23.1494 0
70.6128 26.2212 0.0216475
68.8842 21.9582 0.0208467
66.6353 17.9727 0.02222
65.7923 21.0281 0.0322
74.9197 35.0474 2
74.2794 30.1841 2
72.1833 32.9441 2
71.2768 28.4322 2
65.694 12.7745 2
65.3232 16.11 2
69.8141 24.0609 2
68.3425 26.9539 2
64.7078 19.2002 2
66.7575 22.9363 2
63.8535 22.0497 2
72.4124 35.2246 3.97935
71.803 30.6767 3.97884
69.8369 33.2697 3.96829
68.9624 29.0397 3.96758
67.607 24.9138 3.96734
66.1491 27.6462 3.96705
64.0165 10.9835 4
64.7163 23.8434 3.96593
63.8876 14.3297 3.97781
63.5079 17.4545 3.9687
62.8787 20.3355 3.96441
62.0024 22.9761 3.96725
60.6823 11.1003 3.98225
57.6095 11.4564 3.97349
72.1454 51.8506 0
69.9759 56.25 0
68.8348 53.1131 0.021621
64.0165 64.0165 0
63.8836 60.7645 0.0218929
66.6091 57.1333 0.0215756
63.4959 57.7667 0.0313057
62.2255 65.694 2
58.8952 65.4118 2
69.7673 50.9879 2
67.7826 55.1639 2
66.6441 52.2069 2
62.336 62.422 2
64.6551 56.0279 2
62.197 59.3962 2
61.8122 56.6704 2
60.6668 63.9752 3.98328
57.0242 66.7347 3.98933
57.5558 63.6858 3.9756
67.5029 50.1756 3.96691
65.6972 54.1713 3.96756
64.491 51.3721 3.96547
60.7691 60.926 3.97105
62.7993 55.0571 3.96468
60.6479 58.1442 3.9642
60.2964 55.7638 3.96423
56.25 69.9759 4
58.3339 68.6801 2
60.3285 67.2507 0
58.9198 9.65796 3.98446
62.2254 9.30607 4
73.0099 49.554 0
74.2788 44.8158 0
71.248 46.598 0.0221125
72.1673 42.0857 0.0214361
74.9194 39.9526 0
75 37.5 2
72.4045 39.8025 2
71.7814 44.3525 2
69.8001 41.7897 2
70.5735 48.8131 2
68.9081 46.0138 2
72.488 37.5124 3.97897
70.0382 39.658 3.96834
69.4269 43.9075 3.96803
67.5548 41.494 3.96928
68.2615 48.1063 3.96702
66.6548 45.4307 3.96813
74.9197 35.0474 0
74.2794 30.1841 0
72.184 32.9438 0.0211098
71.2771 28.4318 0.0218233
65.694 12.7746 0
65.3216 16.1049 0.0229059
69.8141 24.0597 0.0210698
68.3427 26.9532 0.0327163
66.758 22.9353 0.032497
64.7087 19.1993 0.0317799
63.8534 22.0492 0.0347238
72.4123 35.2246 2
71.8029 30.6773 2
69.8362 33.2702 2
68.9623 29.0404 2
64.0165 10.9835 2
63.8898 14.3345 2
63.5069 17.4553 2
67.6066 24.9147 2
66.1493 27.6466 2
62.8791 20.3358 2
64.7161 23.844 2
62.0015 22.9768 2
60.685 11.1039 2
57.6114 11.4557 2
70.0549 35.3931 3.96835
69.4638 31.1509 3.96797
67.6174 33.5964 3.96882
66.7259 29.6328 3.96756
65.4795 25.7119 3.96651
64.0223 28.2832 3.97141
62.3395 12.6579 3.97986
62.7534 24.6691 3.96874
62.1937 15.7972 3.96935
61.797 18.7012 3.96387
61.1374 21.3763 3.96517
60.2743 23.779 3.97022
59.2424 12.7985 3.97151
55.8721 10.2419 3.97611
56.3997 13.1468 3.97073
69.7674 50.9889 0.0218875
62.2254 65.694 0
58.8932 65.4135 0.0123778
67.7821 55.1671 0.0215095
66.6448 52.2077 0.0329036
62.3339 62.4256 0.0194563
62.198 59.3955 0.0316593
64.6561 56.0285 0.031678
61.8121 56.6703 0.0359118
60.6689 63.9724 2
57.0258 66.7336 2
57.5565 63.6864 2
67.5024 50.1748 2
65.6963 54.1705 2
64.4911 51.3718 2
60.768 60.9272 2
62.7999 55.0572 2
60.6476 58.1444 2
60.2972 55.764 2
55.0701 67.9316 3.99088
59.2154 62.3517 3.97224
55.8028 64.9051 3.98003
56.3212 62.0675 3.97312
65.2767 49.3951 3.96629
63.671 53.2801 3.96493
62.324 50.6204 3.96769
59.3238 59.5386 3.96503
61.0165 54.2836 3.96597
59.2605 56.9869 3.96298
59.1863 55.1522 3.96651
48.1007 68.5766 3.98646
50.9479 69.9314 3.99128
54.0858 71.1327 4
56.25 69.976 2
58.3339 68.6801 0
57.0571 8.3372 3.98619
60.3285 7.74928 4
58.9227 9.66065 2
62.2255 9.30602 2
70.5737 48.8135 0.0222264
71.7815 44.3529 0.0214318
68.9082 46.0144 0.0325075
69.8007 41.79 0.0318835
72.4046 39.8024 0.020641
75 37.5 0
72.4874 37.5124 2
70.0381 39.6579 2
69.4267 43.9071 2
67.5545 41.4938 2
68.2612 48.1056 2
66.654 45.4303 2
70.1263 37.5224 3.96839
67.797 39.5113 3.96929
67.1733 43.4636 3.96869
65.4291 41.199 3.97555
66.0112 47.4064 3.96734
64.5064 44.8252 3.97223
72.4124 35.2246 0.0206524
71.803 30.6767 0.0211647
69.8369 33.2697 0.031709
68.9624 29.0397 0.0324225
64.0165 10.9835 0
63.8876 14.3297 0.0221874
63.5079 17.4545 0.0312962
67.607 24.9138 0.032665
66.1491 27.6462 0.032954
64.7163 23.8434 0.0340705
62.8787 20.3355 0.0355859
62.0024 22.9761 0.0327467
60.6823 11.1003 0.0177469
57.6095 11.4564 0.0265062
70.0548 35.3933 2
69.4637 31.1514 2
67.6172 33.5967 2
66.7257 29.6333 2
62.3421 12.6624 2
62.1926 15.7977 2
61.7976 18.7012 2
65.4795 25.7125 2
64.0205 28.2839 2
61.1361 21.3769 2
62.7524 24.6698 2
60.274 23.7799 2
59.2439 12.7973 2
56.4006 13.1445 2
55.8735 10.2413 2
67.8372 35.5508 3.9693
67.2244 31.6301 3.96841
65.5801 33.9394 3.97475
64.5358 30.2157 3.97228
63.4243 26.4443 3.97009
62.0586 28.82 3.97577
60.7707 14.2401 3.97049
60.8775 25.3873 3.97258
60.6001 17.1483 3.96472
60.1551 19.8529 3.96287
59.5178 22.3132 3.96674
58.7772 24.3877 3.97312
54.0358 9.14294 3.9783
57.902 14.3622 3.96967
54.7819 12.0338 3.97311
55.3019 14.6901 3.96785
67.5029 50.1756 0.0330881
57.0242 66.7347 0.0106696
60.6668 63.9752 0.0167204
57.5558 63.6858 0.0244013
65.6972 54.1713 0.0324439
64.491 51.3721 0.0345259
60.7691 60.926 0.0289456
60.6479 58.1442 0.0358028
62.7993 55.0571 0.0353187
60.2964 55.7638 0.0357709
55.0714 67.9311 2
59.216 62.3546 2
55.8034 64.9055 2
56.3205 62.0699 2
65.2766 49.3948 2
63.6712 53.28 2
62.3234 50.62 2
59.3227 59.5396 2
61.017 54.2836 2
59.2635 56.9873 2
59.1885 55.1523 2
53.0421 68.9995 3.99114
53.9652 66.0101 3.9829
57.8727 60.8479 3.97056
54.6803 63.1978 3.97546
55.2009 60.5855 3.97056
63.0613 48.6303 3.96928
61.6489 52.5455 3.96679
60.0837 49.9698 3.96983
57.9992 58.238 3.96562
59.2286 53.9087 3.96761
58.0461 55.7733 3.96196
50.1074 67.855 3.98588
47.4618 66.5758 3.9823
46.0545 69.1557 3.98687
48.1009 68.5773 2
48.8018 70.7226 3.99146
50.9488 69.9311 2
51.8506 72.1454 4
54.0858 71.1327 2
56.25 69.9759 0
55.1019 7.14159 3.98865
58.3339 6.31992 4
57.0596 8.33879 2
60.3286 7.74926 2
58.9198 9.65796 0.0155434
62.2254 9.30607 0
68.2615 48.1063 0.0329785
69.4269 43.9075 0.0319701
66.6548 45.4307 0.0318682
67.5548 41.494 0.0307241
70.0382 39.658 0.0316586
72.488 37.5124 0.021034
70.1257 37.5225 2
67.7961 39.5111 2
67.1739 43.4633 2
65.4271 41.1986 2
66.0113 47.406 2
64.5044 44.8246 2
67.8977 37.5232 3.96935
65.669 39.3655 3.97595
65.04 43.0082 3.97392
63.5473 40.91 3.97685
63.8203 46.6887 3.97064
62.5826 44.1806 3.97617
70.0549 35.3931 0.0316525
69.4638 31.1509 0.0320337
67.6174 33.5964 0.0311781
66.7259 29.6328 0.032443
62.3395 12.6579 0.0201365
62.1937 15.7972 0.0306453
61.797 18.7012 0.0361269
65.4795 25.7119 0.0334874
64.0223 28.2832 0.0285893
62.7534 24.6691 0.0312623
61.1374 21.3763 0.0348278
60.2743 23.779 0.0297838
59.2424 12.7985 0.028489
56.3997 13.1468 0.0292668
55.8721 10.2419 0.0238882
67.8363 35.551 2
67.225 31.6304 2
65.5774 33.9398 2
64.5337 30.2163 2
60.7708 14.2408 2
60.5992 17.1487 2
60.1556 19.853 2
63.423 26.445 2
62.0562 28.8209 2
59.5192 22.3139 2
60.8767 25.3882 2
58.7765 24.3891 2
57.9023 14.3604 2
55.3026 14.6893 2
54.0371 9.14145 2
54.7829 12.0309 2
65.7626 35.6736 3.97565
65.0565 32.1728 3.97314
64.1037 34.2683 3.97689
62.3793 30.6736 3.97675
61.4633 27.1193 3.97378
60.601 29.1958 3.9771
59.2998 15.6942 3.96593
59.1011 25.864 3.97585
59.0895 18.3897 3.96205
58.6213 20.9096 3.96348
58.0897 23.1642 3.96786
57.7433 24.7436 3.97442
52.1112 8.15823 3.98172
53.0545 11.0327 3.97429
56.6614 15.7821 3.96761
53.8009 13.7177 3.97141
54.3568 16.0488 3.96719
55.0701 67.9316 0.00912082
65.2767 49.3951 0.0337113
55.8028 64.9051 0.019969
59.2154 62.3517 0.0277617
56.3212 62.0675 0.0268837
63.671 53.2801 0.0350702
62.324 50.6204 0.0323106
59.3238 59.5386 0.0349652
59.2605 56.9869 0.0370237
61.0165 54.2836 0.0340287
59.1863 55.1522 0.0334902
53.0432 68.9992 2
53.9658 66.0107 2
57.872 60.8503 2
54.68 63.1986 2
55.2006 60.5873 2
63.0602 48.6298 2
61.6492 52.5454 2
60.0838 49.9693 2
57.9983 58.2389 2
59.231 53.9087 2
58.0436 55.7722 2
52.0686 66.9977 3.98529
52.9514 64.211 3.97955
56.6333 59.4616 3.96794
53.6733 61.6026 3.97516
[...]
POINT_DATA 3012
SCALARS Jp_lamdaP float 4
LOOKUP_TABLE default
0.999786 1 1 0.999786
1 1 1 1
0.999792 1 1 0.999792
0.999736 1 1 0.999736
0.999786 1 1 0.999786
0.999775 1 1 0.999775
0.999129 1 1 0.999129
1 1 1 1
1 1 1 1
1 1 1 1
0.999859 1 1 0.999859
0.99927 1 1 0.99927
0.99971 1 1 0.99971
0.999732 1 1 0.999732
0.999792 1 1 0.999792
0.999756 1 1 0.999756
0.99978 1 1 0.99978
0.999798 1 1 0.999798
0.999132 1 1 0.999132
1 1 1 1
0.999715 1 1 0.999715
0.999766 1 1 0.999766
0.998999 1 1 0.998999
0.999102 1 1 0.999102
0.999789 1 1 0.999789
0.999155 1 1 0.999155
1.00331 1.00522 1 0.998107
1 1 1 1
0.999882 1 1 0.999882
0.999895 1 1 0.999895
1 1 1 1
0.999279 1 1 0.999279
0.999758 1 1 0.999758
0.999782 1 1 0.999782
0.99924 1 1 0.99924
1 1 1 1
0.999327 1 1 0.999327
0.999371 1 1 0.999371
0.999205 1.00109 1 0.998117
1 1 1 1
1 1 1 1
0.999865 1 1 0.999865
1 1 1 1
0.999728 1 1 0.999728
0.998926 1 1 0.998926
1 1 1 1
0.999142 1 1 0.999142
0.999773 1 1 0.999773
0.999805 1 1 0.999805
0.999781 1 1 0.999781
0.999137 1 1 0.999137
0.999848 1 1 0.999848
0.999734 1 1 0.999734
0.9998 1 1 0.9998
0.999783 1 1 0.999783
0.998998 1 1 0.998998
0.999159 1 1 0.999159
0.999104 1 1 0.999104
1.00371 1.00563 1 0.998092
1 1 1 1
0.999708 1 1 0.999708
0.999136 1 1 0.999136
0.998963 1 1 0.998963
0.999052 1 1 0.999052
1.00631 1.00851 1 0.997815
1.00465 1.00672 1 0.997942
0.99985 1 1 0.99985
0.999265 1 1 0.999265
1.0012 1.003 1 0.998207
1.01563 1.0184 1 0.99728
1 1 1 1
1 1 1 1
1 1 1 1
0.999287 1 1 0.999287
1 1 1 1
1 1 1 1
0.999123 1 1 0.999123
0.999957 1 1 0.999957
0.999228 1 1 0.999228
0.999449 1 1 0.999449
0.99882 1.00071 1 0.998114
1 1 1 1
1.00023 1 1.00034 0.999891
0.999055 1 1 0.999055
0.999158 1 1 0.999158
1.00646 1.00879 1 0.997692
0.999641 1 1 0.999641
1.0015 1.00349 1 0.998016
0.998395 1.00014 1 0.998258
1.00174 1.00427 1 0.997485
1 1 1 1
1 1 1 1
1 1 1 1
1 1 1 1
1 1 1 1
0.999861 1 1 0.999861
0.999025 1 1 0.999025
0.999869 1 1 0.999869
0.999077 1 1 0.999077
1 1 1 1
0.998923 1 1 0.998923
0.999121 1 1 0.999121
1.0055 1.00809 1 0.997434
0.999178 1 1 0.999178
1.00787 1.0104 1 0.997502
0.999729 1 1 0.999729
0.999751 1 1 0.999751
0.99981 1 1 0.99981
0.999797 1 1 0.999797
0.998998 1 1 0.998998
0.999108 1 1 0.999108
0.999165 1 1 0.999165
1.0041 1.00603 1 0.998077
1 1 1 1
0.999726 1 1 0.999726
0.998949 1 1 0.998949
0.99896 1 1 0.99896
0.999925 1 1 0.999925
0.99933 1 1 0.99933
0.999054 1 1 0.999054
1.0063 1.00854 1 0.997774
1.00181 1.00362 1 0.998189
1.0049 1.00694 1 0.997972
1.01555 1.01832 1 0.997285
0.998946 1 1 0.998946
0.998947 1 1 0.998947
1.00503 1.00742 1 0.99763
1.00638 1.0087 1 0.997702
1.00604 1.00823 1 0.997828
1.0236 1.02655 1 0.997124
1 1 1 1
1.01829 1.02112 1 0.997224
0.999605 1 1.00011 0.999493
0.999063 1.00085 1 0.998216
1.01244 1.01515 1 0.997335
1.0253 1.02831 1 0.997071
1.00022 1 1.00048 0.999739
1.00241 1 1.00354 0.998875
1 1 1 1
1 1 1 1
0.999129 1 1 0.999129
1 1 1 1
0.999432 1 1 0.999432
0.999234 1 1 0.999234
0.998399 1.00029 1 0.998111
1 1 1 1
0.999971 1 1.00006 0.999911
0.999134 1 1 0.999134
0.999232 1 1 0.999232
1.00587 1.00819 1 0.997693
0.99967 1 1.00004 0.999632
1.00072 1.00271 1 0.99802
0.998296 1.00004 1 0.998256
1.0016 1.00414 1 0.997468
0.999969 1 1.0002 0.999773
0.999962 1 1 0.999962
1.00065 1 1.00154 0.999108
1.0078 1.01024 1 0.997583
1.00426 1.00642 1 0.997855
1.01973 1.02271 1 0.997084
0.998579 1 1.00007 0.998506
1.00786 1.0105 1 0.997389
1.00103 1.00289 1.00057 0.997575
1.00858 1.01132 1 0.997293
1 1 1 1
1 1 1 1
1 1 1 1
0.999834 1 1 0.999834
1 1 1 1
1 1 1 1
1 1 1 1
0.999011 1 1 0.999011
0.998955 1 1 0.998955
1 1 1 1
1 1 1 1
0.998925 1 1 0.998925
0.999056 1 1 0.999056
1.00591 1.0085 1 0.997434
0.999037 1 1 0.999037
1.00801 1.01053 1 0.997501
0.998918 1 1 0.998918
1.00451 1.00714 1 0.99739
1.00678 1.00932 1 0.997478
1.02618 1.0293 1 0.996968
1.00818 1.01068 1 0.997527
1.02837 1.03145 1 0.99701
1 1 1 1
0.999745 1 1 0.999745
0.998745 1 1 0.998745
0.998958 1 1 0.998958
1 1 1 1
0.999396 1 1 0.999396
0.999057 1 1 0.999057
1.00627 1.00856 1 0.997732
1.00517 1.00718 1 0.998002
1.0024 1.00424 1 0.99817
1.01545 1.01821 1 0.997291
0.998943 1 1 0.998943
0.998944 1 1 0.998944
1.00487 1.00737 1 0.997522
1.0064 1.00869 1 0.99773
1 1 1 1
0.999532 1 1.00003 0.999507
0.999757 1.00148 1 0.998279
1.00598 1.00817 1 0.997826
1.02349 1.02647 1 0.997092
1.01186 1.01457 1 0.997324
1.01848 1.02128 1 0.997259
1.02487 1.02788 1 0.997078
1.00045 1 1.00072 0.999729
1.00218 1 1.0033 0.998877
1.00404 1.00665 1 0.997412
1.00558 1.00793 1 0.997672
1.02462 1.02764 1 0.997058
1.02413 1.02718 1 0.997033
1.02088 1.02374 1 0.997213
1.03401 1.03704 1 0.997073
1.00015 1 1.00052 0.999624
1.02726 1.03025 1 0.997094
0.998589 1.00009 1.00011 0.99839
1.0059 1.00847 1 0.997446
1.02295 1.02595 1 0.997077
1.02715 1.03008 1 0.997152
1.00198 1 1.00329 0.998691
1.00014 1 1.00104 0.999107
1.0024 1 1.00414 0.998267
0.999079 1 1 0.999079
1 1 1 1
0.999931 1 1 0.999931
0.999188 1 1 0.999188
1.00528 1.0076 1 0.997695
0.999754 1 1.00012 0.999638
0.998296 1 1.00004 0.998255
0.999904 1.00188 1 0.998023
1.00159 1.00415 1 0.997451
1.00002 1 1.00023 0.999794
0.999972 1 1 0.999972
1.00086 1 1.00175 0.99911
1.00747 1.00991 1 0.997582
1.00345 1.0056 1 0.997859
1.01981 1.0228 1 0.997081
0.998698 1 1.00019 0.99851
1.00832 1.01095 1 0.997398
1.00049 1.00245 1.00047 0.99757
1.00931 1.01206 1 0.997279
0.99999 1 1 0.99999
0.99962 1 1.00083 0.998789
1.0003 1 1.00088 0.999417
1.00118 1 1.00269 0.998496
1.02378 1.02684 1 0.997017
1.01458 1.01739 1 0.997238
1.02764 1.0308 1 0.996936
0.999362 1.00101 1.00049 0.997864
1.0161 1.01893 1 0.997226
1.00898 1.01017 1.00158 0.997243
1.0191 1.022 1 0.997155
0.999791 1 1 0.999791
1 1 1 1
1 1 1 1
1 1 1 1
1 1 1 1
0.999908 1 1 0.999908
1 1 1 1
1.00012 1 1.0003 0.999821
1 1 1 1
0.999038 1 1 0.999038
0.998987 1 1 0.998987
1.00823 1.01076 1 0.997501
1.00628 1.00887 1 0.997434
0.998927 1 1 0.998927
1 1 1 1
0.998917 1 1 0.998917
1.00476 1.00739 1 0.99739
1.00717 1.00971 1 0.997477
1.02598 1.0291 1 0.996967
1.00818 1.01068 1 0.997525
1.02825 1.03133 1 0.997008
1.00392 1.00656 1 0.997385
1.02466 1.02781 1 0.99693
1.02793 1.03103 1 0.996998
1.04046 1.04349 0.999995 0.997097
1.02726 1.03034 1 0.997008
1.03834 1.0414 1 0.997064
0.998941 1 1 0.998941
0.99894 1 1 0.99894
1.00472 1.00733 1 0.997415
1.00643 1.0087 1 0.997757
1 1 1 1
0.999521 1 1 0.999521
1.00038 1.00205 1 0.998342
1.00593 1.00812 1 0.997823
1.02339 1.02641 1 0.997061
1.01863 1.0214 1 0.997293
1.01129 1.01401 1 0.997314
1.02457 1.02756 1 0.997086
1.00056 1 1.00084 0.999718
1.0019 1 1.00303 0.998879
1.00399 1.00661 1 0.997388
1.00555 1.0079 1 0.997668
1.02463 1.02764 1 0.997064
1.02429 1.02731 1 0.997062
1.00003 1 1.00042 0.999613
0.99869 1.00024 1.00006 0.998387
1.00646 1.009 1 0.997482
1.02118 1.02404 1 0.997205
1.03408 1.03709 1 0.997097
1.02236 1.02538 1 0.997047
1.02723 1.03022 1 0.997098
1.02749 1.03043 1 0.997152
1.00124 1 1.00255 0.998693
1.00249 1 1.00423 0.998269
1.00065 1 1.00154 0.999105
1.02377 1.02684 1 0.997012
1.0252 1.02819 1 0.997086
1.0389 1.04196 1 0.997066
1.03543 1.03849 1 0.997058
1.02993 1.0329 1 0.997117
1.0336 1.03645 0.999934 0.997315
0.999022 1 1.00047 0.998558
1.02915 1.03201 1 0.99723
1.00021 1.00245 1 0.997767
1.01413 1.01716 1 0.997028
1.0243 1.02743 1 0.996953
1.02407 1.02679 1 0.99735
0.999521 1 1.0002 0.999317
0.998759 1 1.00055 0.998206
1.00411 1 1.00573 0.998387
1.0004 1 1.00234 0.998068
1.00716 1.0096 1 0.997581
0.999982 1 1 0.999982
0.999816 1 1 0.999816
1.00081 1 1.0017 0.999112
1.00265 1.0048 1 0.997864
1.01988 1.02287 1 0.997077
0.998737 1 1.00022 0.998514
0.999607 1.00172 1.00033 0.997566
1.00883 1.01145 1 0.997406
1.00962 1.01239 1 0.997266
0.999994 1 1 0.999994
1.00006 1 1.00127 0.99879
0.999929 1 1.0005 0.999426
1.00155 1 1.00307 0.998491
1.02367 1.02674 1 0.997012
1.01452 1.01733 1 0.997238
1.02745 1.03061 1 0.996934
0.99888 1.00056 1.00045 0.99787
1.01617 1.01898 1 0.997236
1.00856 1.00961 1.00173 0.997232
1.01924 1.02207 1 0.997226
0.999999 1 1 0.999999
0.999618 1 1 0.999618
0.999145 1 1.00094 0.998212
1.00107 1 1.00229 0.998788
1.00024 1 1.00204 0.9982
1.03154 1.03471 1 0.996942
1.02202 1.02504 1 0.997058
1.0251 1.02819 1 0.996998
1.00411 1.00464 1.00199 0.997488
1.01732 1.0202 1 0.99718
1.01173 1.01394 1.00086 0.996963
0.999767 1 1 0.999767
0.999331 1 1 0.999331
0.999809 1 1 0.999809
0.999793 1 1 0.999793
1 1 1 1
1 1 1 1
1 1 1 1
1 1 1 1
1 1 1 1
0.999962 1 1 0.999962
1 1 1 1
0.999894 1 1 0.999894
1 1 1 1
1.00047 1 1.00066 0.999809
1 1 1 1
1.00814 1.01065 1 0.997523
1.00749 1.01003 1 0.997477
1.02791 1.03099 1 0.997007
1.02576 1.02888 1 0.996965
1.00508 1.00771 1 0.997391
0.998916 1 1 0.998916
1.00409 1.00672 1 0.997385
1.0245 1.02766 1 0.99693
1.02754 1.03064 1 0.996997
1.03992 1.04325 0.999695 0.997115
1.0267 1.02979 1 0.997004
1.03809 1.04115 1 0.997062
1.02393 1.0271 1 0.996921
1.03906 1.04273 0.999362 0.997111
1.0403 1.04333 1 0.99709
1.03977 1.04447 0.998182 0.997317
1.0345 1.0376 1 0.997008
1.03803 1.04107 0.999722 0.99736
1.00396 1.00662 1 0.997363
1.00553 1.00789 1 0.997664
1.02468 1.02769 1 0.99707
1.02444 1.02743 1 0.997091
0.999914 1 1.00031 0.999602
0.998832 1.00045 1 0.998385
1.00722 1.00972 1 0.997518
1.02149 1.02436 1 0.997198
1.03418 1.03717 1 0.99712
1.0272 1.03019 1 0.997103
1.02164 1.02469 1 0.997016
1.02783 1.03077 1 0.997151
1.00063 1 1.00194 0.998696
1.00264 1 1.00437 0.998272
1.00107 1 1.00196 0.999102
1.02382 1.02692 1 0.996979
1.0254 1.0284 1 0.997084
1.03859 1.04166 0.999954 0.997095
1.03554 1.0386 1 0.997054
0.999072 1 1.00052 0.998556
1.00172 1.00397 1 0.997761
1.01288 1.01582 1.00003 0.997077
1.03015 1.03314 1 0.997103
1.03362 1.03641 0.999951 0.997359
1.02455 1.02772 1 0.996918
1.02892 1.03178 1 0.997233
1.02433 1.02702 1 0.99738
0.999102 1 1.0009 0.998208
1.00048 1 1.00244 0.998046
0.999701 1 1.00039 0.999313
1.00373 1 1.00532 0.998418
1.03887 1.04196 0.999977 0.997062
1.03804 1.04107 1 0.997086
1.03702 1.04187 0.998105 0.997232
1.03487 1.03874 0.998902 0.997369
1.031 1.03377 1 0.997321
1.03175 1.03532 0.999013 0.997534
0.998367 1.00032 1 0.998045
1.02513 1.02769 0.999962 0.997541
1.00461 1.00728 1 0.997349
1.0154 1.01848 1.00018 0.996798
1.0256 1.02879 1 0.996905
1.0242 1.02685 1 0.99742
0.999475 1 1 0.999475
1.00136 1 1.00275 0.998611
0.99799 1 1 0.99799
1.00299 1 1.00485 0.998151
0.999696 1 1.00168 0.998018
0.999997 1 1 0.999997
1.0235 1.02657 1 0.997008
0.99958 1 1.00015 0.999434
1.00076 1 1.00197 0.998791
1.00206 1 1.00358 0.998485
1.01449 1.0173 1 0.997237
1.0273 1.03046 1 0.996931
0.998617 1.00024 1.00051 0.997876
1.00892 1.00978 1.00193 0.997221
1.01631 1.01912 1 0.997247
1.01965 1.02241 1 0.997297
0.999999 1 1 0.999999
0.999626 1 1 0.999626
0.99905 1 1.00084 0.998214
1.00136 1 1.00258 0.998788
1.00061 1 1.00244 0.998178
1.03162 1.03479 1 0.996936
1.02221 1.02523 1 0.997057
1.025 1.02809 1 0.996987
1.00309 1.00348 1.00213 0.997494
1.01996 1.02284 1 0.997184
1.01142 1.01351 1.00096 0.996982
0.999719 1 1 0.999719
0.999473 1 1.00042 0.999058
0.999229 1.00086 1.00048 0.997891
1.00245 1 1.00402 0.998431
0.99972 1 1.00163 0.998093
1.02965 1.03267 1 0.997074
1.02041 1.02342 1 0.997062
1.02351 1.02639 1 0.997185
1.00238 1.00131 1.00379 0.997287
1.00957 1.01274 1 0.996871
0.99977 1 1 0.99977
0.999262 1 1 0.999262
0.999308 1 1 0.999308
0.999076 1 1 0.999076
0.999341 1 1 0.999341
0.999816 1 1 0.999816
0.99981 1 1 0.99981
1 1 1 1
0.999795 1 1 0.999795
1 1 1 1
1 1 1 1
1 1 1 1
1 1 1 1
1 1 1 1
0.999992 1 1 0.999992
0.999949 1 1 0.999949
1 1 1 1
1 1 1 1
0.999879 1 1 0.999879
1 1 1 1
1.02625 1.02934 1 0.997001
1.02739 1.03048 1 0.996995
1.03798 1.04105 1 0.997059
1.03948 1.04311 0.999385 0.997132
1.02422 1.02738 1 0.996931
1.00418 1.00681 1 0.997384
1.02369 1.02685 1 0.996922
1.03907 1.04269 0.999423 0.997105
1.04005 1.04309 1 0.99709
1.03921 1.04434 0.997734 0.997349
1.03513 1.03824 1 0.997002
1.03753 1.04092 0.999366 0.997382
1.03845 1.04196 0.999551 0.997079
1.0389 1.04446 0.99738 0.997287
1.03851 1.04297 0.998311 0.997403
1.03634 1.04357 0.995575 0.997479
1.03452 1.03738 1 0.99724
1.03619 1.04072 0.998064 0.997584
1.02373 1.02686 1 0.996946
1.02558 1.02858 1 0.997082
1.03817 1.04127 0.999903 0.997123
1.0356 1.03866 1 0.99705
0.999097 1 1.00054 0.998554
1.00299 1.00525 1 0.997754
1.01165 1.01438 1.00018 0.997127
1.03038 1.03339 1 0.99709
1.03358 1.03631 0.999968 0.997404
1.02869 1.03154 1 0.997236
1.02483 1.02803 1 0.996883
1.0243 1.02696 1 0.997411
0.999431 1.00002 1.00121 0.99821
1.00056 1 1.00254 0.998025
0.99989 1 1.00058 0.999308
1.00308 1 1.00463 0.99845
1.03887 1.04194 0.999989 0.997062
1.03759 1.04065 1 0.997065
1.03681 1.04158 0.998154 0.997264
1.03536 1.03883 0.999303 0.997351
0.998747 1.00071 1 0.998038
1.00416 1.00675 1.00003 0.997395
1.01577 1.01865 1.00039 0.996789
1.03044 1.03325 1 0.99728
1.03122 1.03472 0.999024 0.997591
1.02396 1.02715 1 0.996891
1.02599 1.02853 0.99999 0.997543
1.02504 1.02764 1 0.997471
0.998284 1.0003 1 0.997988
0.999362 1.00022 1.00112 0.998025
1.00361 1 1.00548 0.998144
0.999463 1 1.00002 0.999439
1.00117 1 1.00253 0.998642
1.03727 1.04334 0.996906 0.997276
1.03614 1.04113 0.997887 0.997316
1.03215 1.03832 0.996465 0.997579
1.02772 1.03146 0.998762 0.997604
0.999366 1.0016 1 0.997772
1.02969 1.03208 0.999965 0.997716
1.00332 1.00596 1.00029 0.997095
1.01377 1.01673 1.00051 0.996573
1.02198 1.02518 1 0.996882
0.99956 1 1 0.99956
0.999897 1 1.001 0.998897
1.00177 1 1.0034 0.998375
0.998502 1.00057 1 0.997935
1.00367 1 1.00574 0.997937
0.998586 1.00019 1.00047 0.997929
1 1 1 1
0.999634 1 1 0.999634
1.03172 1.0349 1 0.99693
1.00175 1 1.00296 0.998787
0.998775 1 1.00056 0.998216
1.00115 1 1.00299 0.998157
1.02228 1.0253 1 0.997056
1.02473 1.02784 1 0.996977
1.00179 1.00201 1.00229 0.997499
1.01036 1.01261 1.00077 0.997001
1.02251 1.02539 1 0.997188
0.999724 1 1 0.999724
0.999366 1 1.0003 0.999062
0.998797 1.0005 1.00041 0.99789
1.00318 1 1.00476 0.998426
0.999724 1 1.00164 0.998092
1.02968 1.03271 1 0.997068
1.02071 1.02373 1 0.997051
1.0232 1.02607 1 0.997211
1.00251 1.00202 1.00324 0.997249
1.00841 1.01155 1.00006 0.996842
0.999226 1 1 0.999226
1.00158 1 1.00294 0.998645
1.001 1.00125 1.002 0.997759
1.00235 1 1.00418 0.998175
0.998983 1 1.001 0.997989
1.0298 1.03248 0.999876 0.997523
1.01872 1.02182 1 0.996968
1.01981 1.02264 1 0.99723
1.00404 1.00263 1.00433 0.997087
1.00186 1.00523 1 0.996653
0.999773 1 1 0.999773
0.99928 1 1 0.99928
0.998994 1 1 0.998994
0.999285 1 1 0.999285
0.999341 1 1 0.999341
0.999045 1 1 0.999045
0.99891 1 1 0.99891
0.999002 1 1 0.999002
0.999347 1 1 0.999347
0.999812 1 1 0.999812
0.999816 1 1 0.999816
1 1 1 1
0.999812 1 1 0.999812
1 1 1 1
1 1 1 1
1 1 1 1
1 1 1 1
1 1 1 1
1 1 1 1
0.999985 1 1 0.999985
1 1 1 1
0.999935 1 1 0.999935
1 1 1 1
1 1 1 1
1.0357 1.03882 1 0.996996
1.03957 1.0426 1 0.997089
1.03701 1.04076 0.998994 0.997404
1.03858 1.04413 0.99729 0.997381
1.03914 1.04268 0.999502 0.997099
1.02359 1.02674 1 0.996923
1.03892 1.04224 0.999749 0.997059
1.03917 1.04449 0.997626 0.997279
1.03866 1.04287 0.998571 0.997385
1.0357 1.04326 0.995249 0.997492
1.0339 1.03677 1 0.997239
1.03482 1.03979 0.997589 0.997626
1.0386 1.04392 0.997634 0.997261
1.03709 1.04495 0.994993 0.997472
1.03625 1.04405 0.99493 0.997589
1.03333 1.03793 0.9979 0.997664
1.039 1.04207 0.999999 0.997062
1.03719 1.04026 1 0.997044
1.03666 1.04133 0.998222 0.997296
1.0359 1.039 0.999684 0.997334
0.999207 1.00117 1 0.998031
1.0037 1.00628 1 0.997441
1.01607 1.01876 1.00058 0.99678
1.02983 1.03268 1 0.99724
1.03068 1.03414 0.999008 0.997648
1.02702 1.02955 1 0.997545
1.02264 1.02585 1 0.996877
1.02646 1.02901 1 0.997522
0.998672 1.00069 1 0.997986
0.99895 1.00038 1.00054 0.998031
1.00497 1 1.00684 0.998137
0.999487 1 1.00008 0.999403
1.00115 1 1.00248 0.998673
1.03775 1.04361 0.997101 0.997278
1.03616 1.04125 0.997787 0.997313
1.032 1.03772 0.99691 0.997569
1.00027 1.00251 1 0.997765
1.00387 1.00649 1.00026 0.99714
1.01322 1.01594 1.00076 0.996562
1.02828 1.032 0.998795 0.997592
1.02269 1.0258 1 0.996971
1.02705 1.02965 0.999786 0.997689
0.999581 1 1 0.999581
0.999202 1.00128 1 0.997923
0.998355 1.00005 1.00026 0.998044
1.00412 1 1.00621 0.997921
1.00197 1 1.00358 0.998392
0.999849 1 1.00098 0.998867
1.03537 1.04366 0.994677 0.997362
1.03416 1.04391 0.993143 0.997497
1.02626 1.03562 0.993278 0.997666
1.02996 1.03582 0.996531 0.997808
1.001 1.00341 1 0.997594
1.02209 1.02482 1 0.997335
1.00301 1.00471 1.00165 0.996665
1.00723 1.0098 1.00104 0.996415
0.999726 1 1 0.999726
0.999126 1 1.00002 0.999107
1.00001 1 1.00143 0.998579
1.00355 1 1.00552 0.998042
0.999201 1.00121 1.00021 0.997785
1.00425 1 1.00651 0.997753
0.999729 1 1 0.999729
0.999169 1 1.0001 0.999066
1.02989 1.03293 1 0.997061
1.00345 1 1.00503 0.998422
0.998289 1.00013 1.00027 0.997889
0.999614 1 1.00152 0.998092
1.02129 1.02433 1 0.997041
1.0232 1.02603 1 0.997238
1.00286 1.00293 1.00273 0.997211
1.00728 1.01023 1.00027 0.996813
0.999229 1 1 0.999229
1.00146 1 1.00281 0.998648
1.00072 1.00097 1.00198 0.99777
1.00236 1 1.00419 0.998182
0.998549 1 1.00048 0.998074
1.03034 1.03315 0.999711 0.997563
1.01809 1.02117 1 0.996979
1.02122 1.02398 1 0.997303
1.00345 1.00183 1.00458 0.997049
1.00241 1.0058 1.00003 0.996597
0.998906 1 1 0.998906
1.00259 1 1.00431 0.99829
1.00249 1.0011 1.00378 0.997614
0.999466 1 1.0016 0.997867
1.03107 1.04372 0.990054 0.997804
1.02407 1.02664 0.999872 0.997625
1.01071 1.01401 1 0.99674
1.0037 1.00277 1.00426 0.996675
0.999298 1 1 0.999298
0.999007 1 1 0.999007
0.998887 1 1 0.998887
0.99934 1 1 0.99934
0.999014 1 1 0.999014
0.999346 1 1 0.999346
0.998899 1 1 0.998899
0.999016 1 1 0.999016
0.998842 1 1 0.998842
0.998832 1 1 0.998832
0.998973 1 1 0.998973
0.99933 1 1 0.99933
0.999798 1 1 0.999798
0.999811 1 1 0.999811
1 1 1 1
0.999816 1 1 0.999816
1 1 1 1
1 1 1 1
1 1 1 1
1 1 1 1
1 1 1 1
1 1 1 1
0.999999 1 1 0.999999
1 1 1 1
0.999978 1 1 0.999978
1 1 1 1
1 1 1 1
1.03319 1.03605 1 0.997239
1.03891 1.04287 0.998835 0.997367
1.03349 1.03889 0.997133 0.997669
1.0351 1.043 0.994909 0.997505
1.03945 1.04452 0.997863 0.997271
1.0393 1.04245 0.999938 0.997039
1.03839 1.04384 0.997511 0.99726
1.03669 1.04444 0.99511 0.997463
1.03555 1.04338 0.994892 0.997588
1.03505 1.03945 0.998085 0.997672
1.03707 1.04469 0.995276 0.997415
1.0376 1.04915 0.991342 0.997634
1.03785 1.04731 0.993234 0.997719
1.03819 1.04385 0.997288 0.997281
1.03616 1.04136 0.997695 0.99731
1.03193 1.03709 0.997461 0.997558
1.00111 1.00336 1 0.997758
1.00432 1.00698 1.00018 0.997185
1.0124 1.01505 1.00085 0.996551
1.02888 1.03255 0.998862 0.997579
1.0242 1.02693 0.999683 0.997661
1.02292 1.02593 1 0.997061
0.999627 1.00172 1 0.997912
0.998158 1 1 0.998158
1.00441 1 1.00651 0.997906
0.999602 1 1 0.999602
1.00153 1 1.00313 0.998408
0.999703 1 1.00087 0.998836
1.03606 1.04402 0.994994 0.99737
1.03396 1.04393 0.992929 0.997505
1.02652 1.03524 0.993906 0.997659
1.00057 1.003 1 0.997584
1.0026 1.00446 1.0014 0.996748
1.00694 1.00959 1.0009 0.996471
1.03009 1.03564 0.996819 0.997815
1.02195 1.02483 0.999874 0.997319
0.999774 1 1 0.999774
0.999107 1 1 0.999107
0.998424 1.00059 1 0.997832
1.00614 1.00012 1.00817 0.997862
1.00363 1 1.00557 0.998073
0.999967 1 1.00142 0.998554
1.03555 1.04686 0.991619 0.997554
1.02648 1.04207 0.987389 0.997627
1.02463 1.03561 0.991519 0.997857
1.02116 1.02754 0.995951 0.997833
1.00105 1.00287 1.00091 0.997274
1.00613 1.00813 1.0014 0.996623
1.00278 1.00369 1.00264 0.99646
0.999884 1 1 0.999884
0.999469 1 1 0.999469
0.999244 1 1 0.999244
0.998814 1 1.0001 0.998711
1.00066 1 1.00239 0.998273
1.00658 1 1.00867 0.997932
0.997973 1.0001 1 0.997872
1.02557 1.00012 1.02746 0.998044
0.999231 1 1 0.999231
1.00159 1 1.00294 0.99865
1.03079 1.03373 0.999548 0.997604
1.00282 1 1.00464 0.998188
1.00066 1.00073 1.00215 0.997782
0.998193 1 1.00004 0.998158
1.01708 1.02015 1 0.99699
1.0224 1.02509 1 0.997376
1.003 1.00118 1.00482 0.997012
1.00311 1.00659 1 0.996541
0.998965 1 1.00008 0.998881
1.00263 1 1.00433 0.998305
1.00282 1.00103 1.00415 0.997643
0.999317 1 1.00142 0.997901
1.03273 1.04485 0.990553 0.997821
1.02388 1.02641 0.999949 0.997581