# vtk DataFile Version 2.0
Wound Healing Simulation
ASCII
DATASET UNSTRUCTURED_GRID
POINTS 3012 float
69.9759 18.75 4
67.2507 60.3285 4
69.976 18.75 2
73.0099 25.446 4
71.1327 20.9142 4
68.6801 16.6661 4
67.8249 19.9262 3.98107
67.2507 60.3286 2
71.1327 54.0858 4
68.6801 58.3339 4
65.6939 62.2254 4
65.3114 59.0007 3.97998
74.6784 42.3946 4
73.7221 47.2057 4
69.9759 18.75 0
73.0099 25.446 2
68.6801 16.6661 2
71.1327 20.9142 2
67.8254 19.9294 2
74.6792 32.6053 4
73.7222 27.7943 4
72.1454 23.1494 4
70.6136 26.2208 3.9806
68.885 21.958 3.98146
67.2507 14.6715 4
66.6363 17.9723 3.98026
65.7946 21.0267 3.97064
67.2507 60.3285 0
71.1327 54.0858 2
68.6801 58.3339 2
65.694 62.2255 2
65.3126 58.9969 2
72.1454 51.8506 4
69.9759 56.25 4
68.8358 53.1129 3.98058
64.0165 64.0165 4
66.6101 57.1335 3.98081
63.8846 60.7651 3.98056
63.4977 57.7684 3.97155
60.3285 67.2507 4
74.6792 42.3947 2
73.7222 47.2057 2
74.9194 39.9526 4
74.2788 44.8158 4
72.1678 42.0854 3.98012
73.0099 49.554 4
71.2488 46.5979 3.97982
73.0099 25.446 0
71.1327 20.9142 0
68.6801 16.6661 0
67.8249 19.9262 0.0189296
74.6792 32.6053 2
73.7222 27.7943 2
67.2508 14.6715 2
72.1455 23.1494 2
70.6135 26.2214 2
66.6373 17.9763 2
68.8854 21.9601 2
65.7941 21.0276 2
74.9197 35.0474 4
74.2794 30.1841 4
72.1845 32.9433 3.98044
71.2777 28.4313 3.98013
69.8149 24.0595 3.98126
68.3447 26.952 3.96964
66.7601 22.9342 3.97015
65.694 12.7746 4
65.3226 16.1043 3.97973
64.711 19.1974 3.97139
63.8813 22.0395 3.96704
71.1327 54.0858 0
65.6939 62.2254 0
68.6801 58.3339 0
65.3114 59.0007 0.0200167
72.1455 51.8506 2
69.9759 56.25 2
68.8359 53.111 2
64.0165 64.0165 2
66.611 57.1298 2
63.8862 60.7618 2
63.4972 57.7682 2
62.2254 65.694 4
58.8941 65.4139 3.98977
69.7683 50.9888 3.98042
67.783 55.1671 3.98058
66.6471 52.2079 3.96926
62.3353 62.4271 3.98475
64.6585 56.0297 3.97125
62.1995 59.3985 3.97015
61.817 56.674 3.96664
58.3339 68.6801 4
60.3285 67.2508 2
73.7221 47.2057 0
74.6784 42.3946 0
74.9197 39.9526 2
74.2794 44.8159 2
72.1674 42.0854 2
73.0099 49.554 2
71.2487 46.5977 2
75 37.5 4
72.4051 39.8021 3.98069
71.7821 44.3527 3.98015
69.8023 41.7892 3.96964
70.5746 48.8134 3.97997
68.9102 46.0139 3.96926
74.6792 32.6053 0
73.7222 27.7943 0
67.2507 14.6715 0
72.1454 23.1494 0
70.6136 26.2208 0.0193965
68.885 21.958 0.0185433
66.6363 17.9723 0.0197382
65.7946 21.0267 0.0293571
74.9197 35.0474 2
74.2794 30.1841 2
72.184 32.9437 2
71.2776 28.4318 2
65.694 12.7745 2
65.324 16.1085 2
69.815 24.0606 2
68.3446 26.9526 2
64.7105 19.1981 2
66.7597 22.935 2
63.8807 22.0399 2
72.4129 35.2241 3.98076
71.8035 30.6762 3.98049
69.8383 33.2685 3.96992
68.9641 29.0386 3.96961
67.6091 24.9127 3.96979
66.1849 27.6373 3.96715
64.0165 10.9835 4
64.7502 23.8332 3.96706
63.889 14.3283 3.9818
63.5099 17.4516 3.97132
62.9007 20.3263 3.96687
62.0631 22.9558 3.9669
60.6833 11.0985 3.98598
57.6113 11.4527 3.97762
72.1454 51.8506 0
69.9759 56.25 0
68.8358 53.1129 0.0194234
64.0165 64.0165 0
63.8846 60.7651 0.0194409
66.6101 57.1335 0.0191948
63.4977 57.7684 0.028451
62.2255 65.694 2
58.8954 65.4132 2
69.7683 50.9879 2
67.7835 55.1641 2
66.6466 52.2071 2
62.3372 62.4246 2
64.6579 56.0292 2
62.1989 59.3989 2
61.8164 56.6739 2
60.668 63.9765 3.98707
57.0253 66.7347 3.99119
57.5568 63.6886 3.97975
67.5053 50.1755 3.96899
65.6994 54.1717 3.96983
64.5292 51.3807 3.9662
60.7711 60.9333 3.97466
62.8146 55.0623 3.96695
60.6501 58.1483 3.96437
60.3186 55.7737 3.9666
56.25 69.9759 4
58.3339 68.6801 2
60.3285 67.2507 0
58.9206 9.65672 3.98749
62.2254 9.30607 4
73.0099 49.554 0
74.2788 44.8158 0
71.2488 46.5979 0.0201829
72.1678 42.0854 0.0198761
74.9194 39.9526 0
75 37.5 2
72.405 39.8023 2
71.782 44.3525 2
69.8018 41.7889 2
70.5744 48.8131 2
68.9102 46.0134 2
72.4885 37.512 3.98031
70.0396 39.6571 3.96972
69.4285 43.9069 3.96953
67.587 41.4957 3.96818
68.2637 48.106 3.96897
66.6947 45.4362 3.96741
74.9197 35.0474 0
74.2794 30.1841 0
72.1845 32.9433 0.0195575
71.2777 28.4313 0.0198682
65.694 12.7746 0
65.3226 16.1043 0.0202672
69.8149 24.0595 0.0187399
68.3447 26.952 0.0303603
66.7601 22.9342 0.0298479
64.711 19.1974 0.028611
63.8813 22.0395 0.0329608
72.4129 35.2242 2
71.8035 30.6768 2
69.8378 33.2689 2
68.9641 29.0391 2
64.0165 10.9835 2
63.8911 14.3318 2
63.5094 17.4525 2
67.6088 24.9134 2
66.185 27.6377 2
62.9001 20.3266 2
64.7498 23.8337 2
62.0624 22.9563 2
60.6856 11.101 2
57.6122 11.4512 2
70.0564 35.392 3.96992
69.4653 31.1497 3.96971
67.6479 33.592 3.96804
66.7618 29.6251 3.96738
65.5154 25.7022 3.96706
64.0919 28.2667 3.96979
62.341 12.6557 3.98469
62.8191 24.6496 3.96797
62.1959 15.7911 3.97216
61.8057 18.6939 3.96665
61.1923 21.3555 3.96556
60.3579 23.7505 3.96889
59.2448 12.7846 3.97559
55.8738 10.2377 3.97999
56.4033 13.127 3.9742
69.7683 50.9888 0.0195753
62.2254 65.694 0
58.8941 65.4139 0.0102318
67.783 55.1671 0.0194237
66.6471 52.2079 0.0307418
62.3353 62.4271 0.0152543
62.1995 59.3985 0.029848
64.6585 56.0297 0.028753
61.817 56.674 0.0333562
60.6697 63.9749 2
57.0262 66.7343 2
57.557 63.6902 2
67.505 50.1748 2
65.6988 54.171 2
64.5291 51.3804 2
60.771 60.9343 2
62.814 55.0622 2
60.6498 58.1484 2
60.3182 55.7735 2
55.0711 67.9315 3.99181
59.2175 62.3616 3.97598
55.8042 64.9082 3.98416
56.3247 62.0813 3.97524
65.3191 49.4036 3.96644
63.7004 53.2876 3.9662
62.3952 50.6366 3.96712
59.3282 59.5476 3.96936
61.0634 54.2973 3.9658
59.272 56.9948 3.96374
59.2285 55.167 3.96527
48.1019 68.5774 3.98731
50.9489 69.9312 3.99197
54.0858 71.1327 4
56.25 69.976 2
58.3339 68.6801 0
57.0581 8.33649 3.98889
60.3285 7.74928 4
58.9228 9.65815 2
62.2255 9.30602 2
70.5746 48.8134 0.0200315
71.7821 44.3527 0.0198471
68.9102 46.0139 0.030741
69.8023 41.7892 0.0303552
72.4051 39.8021 0.0193145
75 37.5 0
72.488 37.5122 2
70.0396 39.657 2
69.4284 43.9065 2
67.5869 41.4955 2
68.2636 48.1054 2
66.6943 45.4358 2
70.1276 37.5214 3.96978
67.8268 39.5113 3.96825
67.2098 43.4671 3.96781
65.4918 41.2033 3.97188
66.0538 47.4136 3.96694
64.5828 44.8364 3.97019
72.4129 35.2241 0.0192381
71.8035 30.6762 0.0195118
69.8383 33.2685 0.0300814
68.9641 29.0386 0.0303855
64.0165 10.9835 0
63.889 14.3283 0.0181957
63.5099 17.4516 0.0286762
67.6091 24.9127 0.030209
66.1849 27.6373 0.0328472
64.7502 23.8332 0.0329443
62.9007 20.3263 0.0331297
62.0631 22.9558 0.0331018
60.6833 11.0985 0.0140167
57.6113 11.4527 0.0223805
70.0563 35.3922 2
69.4652 31.1502 2
67.648 33.5921 2
66.7619 29.6254 2
62.3431 12.659 2
62.1956 15.7912 2
61.8048 18.6942 2
65.5152 25.7026 2
64.091 28.2671 2
61.1914 21.356 2
62.8185 24.65 2
60.3577 23.7511 2
59.2455 12.7843 2
56.4039 13.1254 2
55.8745 10.2363 2
67.8646 35.5479 3.96827
67.256 31.6241 3.96774
65.645 33.9314 3.9719
64.6052 30.2016 3.97049
63.493 26.4261 3.96904
62.1545 28.7971 3.97361
60.7737 14.2288 3.97521
60.9659 25.3601 3.97085
60.6043 17.1404 3.96672
60.2008 19.8324 3.96399
59.5956 22.2834 3.96597
58.8788 24.3518 3.97139
54.0371 9.13889 3.982
57.9072 14.344 3.97478
54.7853 12.0211 3.97523
55.3082 14.6661 3.97269
67.5053 50.1755 0.0310069
57.0253 66.7347 0.00881284
60.668 63.9765 0.0129324
57.5568 63.6886 0.0202521
65.6994 54.1717 0.0301674
64.5292 51.3807 0.0337974
60.7711 60.9333 0.0253372
60.6501 58.1483 0.0356265
62.8146 55.0623 0.0330534
60.3186 55.7737 0.0334039
55.0718 67.9314 2
59.2176 62.3628 2
55.8041 64.9092 2
56.3242 62.0835 2
65.3189 49.4032 2
63.6998 53.2873 2
62.3952 50.6363 2
59.3276 59.5491 2
61.0635 54.2971 2
59.2721 56.9945 2
59.2284 55.1666 2
53.0431 68.9993 3.99187
53.9666 66.0117 3.98566
57.8772 60.8603 3.97469
54.683 63.2031 3.97926
55.2074 60.6004 3.97435
63.1365 48.6457 3.96826
61.7112 52.5612 3.96635
60.1788 49.9926 3.96892
58.0061 58.2474 3.96728
59.2972 53.9281 3.96705
58.094 55.791 3.96191
50.1087 67.8557 3.98703
47.4628 66.5779 3.98386
46.0556 69.1565 3.98751
48.1019 68.5781 2
48.8029 70.7224 3.99208
50.9493 69.9312 2
51.8506 72.1454 4
54.0858 71.1327 2
56.25 69.9759 0
55.1029 7.14085 3.99042
58.3339 6.31992 4
57.0598 8.3372 2
60.3286 7.74926 2
58.9206 9.65672 0.0125064
62.2254 9.30607 0
68.2637 48.106 0.0310289
69.4285 43.9069 0.0304656
66.6947 45.4362 0.0325939
67.587 41.4957 0.0318203
70.0396 39.6571 0.0302849
72.4885 37.512 0.0196901
70.1272 37.5214 2
67.8267 39.5112 2
67.2105 43.4669 2
65.4908 41.2031 2
66.0539 47.4133 2
64.5816 44.836 2
67.9253 37.5218 3.9683
65.7294 39.3666 3.97223
65.1106 43.0161 3.9713
63.637 40.9189 3.97635
63.8978 46.7024 3.9692
62.6839 44.1967 3.97408
70.0564 35.392 0.0300797
69.4653 31.1497 0.0302912
67.6479 33.592 0.0319603
66.7618 29.6251 0.0326193
62.341 12.6557 0.0153096
62.1959 15.7911 0.0278354
61.8057 18.6939 0.0333537
65.5154 25.7022 0.0329416
64.0919 28.2667 0.0302117
62.8191 24.6496 0.032035
61.1923 21.3555 0.034443
60.3579 23.7505 0.0311069
59.2448 12.7846 0.0244133
56.4033 13.127 0.0258033
55.8738 10.2377 0.0200113
67.8644 35.548 2
67.2564 31.6244 2
65.6444 33.9316 2
64.6043 30.2019 2
60.7737 14.2293 2
60.6041 17.1401 2
60.2013 19.8324 2
63.4923 26.4265 2
62.153 28.7976 2
59.5974 22.2838 2
60.9655 25.3607 2
58.8781 24.3528 2
57.9072 14.343 2
55.3085 14.6658 2
54.0376 9.13743 2
54.7858 12.0188 2
65.8204 35.6685 3.97211
65.1256 32.1614 3.97103
64.1895 34.2558 3.97635
62.4692 30.6533 3.9744
61.5582 27.0937 3.97201
60.7106 29.1656 3.97713
59.3059 15.6798 3.97123
59.208 25.8287 3.97435
59.1063 18.3744 3.96406
58.6934 20.8792 3.96312
58.1865 23.1265 3.96661
57.8482 24.7028 3.97342
52.1119 8.15571 3.98429
53.0572 11.0247 3.9774
56.6702 15.7601 3.97384
53.8064 13.6978 3.97475
54.3676 16.022 3.9743
55.0711 67.9315 0.00819156
65.3191 49.4036 0.0335613
55.8042 64.9082 0.0158394
59.2175 62.3616 0.0240229
56.3247 62.0813 0.024757
63.7004 53.2876 0.0338033
62.3952 50.6366 0.0328786
59.3282 59.5476 0.0306383
59.272 56.9948 0.0362592
61.0634 54.2973 0.0342013
59.2285 55.167 0.0347301
53.0436 68.9993 2
53.9665 66.0124 2
57.8764 60.8619 2
54.6825 63.204 2
55.2071 60.6021 2
63.1359 48.6453 2
61.7119 52.5611 2
60.1785 49.992 2
58.0056 58.2488 2
59.2987 53.9279 2
58.0929 55.7902 2
52.0699 66.9986 3.98671
52.953 64.2151 3.98217
56.6412 59.4756 3.97405
[...]
POINT_DATA 3012
SCALARS rho_c_phif_kappa float 4
LOOKUP_TABLE default
1000 0 1.00146 0.261359
1000 0 1.00123 0.261662
1000 0 1.00146 0.261226
1000 0 1.00146 0.261604
1000 0 1.00146 0.261378
1000 0 1.00146 0.261419
1008.61 9.66984e-09 1.00165 0.260619
1000 0 1.00123 0.261694
1000 0 1.00124 0.2617
1000 0 1.00124 0.261587
1000 0 1.00146 0.261105
1008.59 9.49871e-09 1.00177 0.260604
1000 0 1.00145 0.26176
1000 0 1.00146 0.262173
1000 0 1.00146 0.261073
1000 0 1.00146 0.261768
1000 0 1.00146 0.261185
1000 0 1.00146 0.261356
1008.6 9.68931e-09 1.00165 0.260722
1000 0 1.00124 0.261919
1000 0 1.00146 0.261701
1000 0 1.00146 0.261474
1008.56 9.75989e-09 1.00164 0.261092
1008.59 9.70734e-09 1.00165 0.260764
1000 0 1.00146 0.261507
1008.63 9.63171e-09 1.00165 0.260453
1008.9 1.03051e-08 1.00183 0.259457
1000 0 1.00123 0.261779
1000 0 1.00135 0.261508
1000 0 1.00135 0.261378
1000 0 1.00123 0.261854
1008.63 9.52241e-09 1.00177 0.260594
1000 0 1.00146 0.261368
1000 0 1.00146 0.261023
1008.6 9.72085e-09 1.00165 0.260662
1000 0 1.00123 0.261828
1008.58 9.56697e-09 1.00166 0.260735
1008.63 9.46322e-09 1.00177 0.260753
1008.93 1.03228e-08 1.00182 0.259499
1000 0 1.00123 0.262183
1000 0 1.00124 0.261913
1000 0 1.00135 0.262008
1000 0 1.00124 0.261933
1000 0 1.00146 0.262235
1008.52 9.77158e-09 1.00176 0.261177
1000 0 1.00124 0.262183
1008.57 9.7981e-09 1.00165 0.260973
1000 0 1.00146 0.26199
1000 0 1.00146 0.26133
1000 0 1.00146 0.260944
1008.61 9.66984e-09 1.00165 0.260826
1000 0 1.00135 0.262111
1000 0 1.00146 0.261899
1000 0 1.00146 0.261215
1000 0 1.00146 0.261563
1008.44 9.77661e-09 1.00164 0.261015
1008.66 9.65386e-09 1.00165 0.260619
1008.53 9.72432e-09 1.00165 0.260798
1008.9 1.03012e-08 1.00183 0.259359
1000 0 1.00124 0.261955
1000 0 1.00146 0.26176
1008.51 9.75291e-09 1.00165 0.261361
1008.54 9.76905e-09 1.00164 0.261201
1008.58 9.73923e-09 1.00164 0.260926
1008.87 1.02764e-08 1.00182 0.259499
1008.89 1.02936e-08 1.00182 0.259344
1000 0 1.00146 0.261601
1008.67 9.59856e-09 1.00165 0.260334
1008.92 1.03192e-08 1.00183 0.259449
1008.72 1.00968e-08 1.0018 0.257606
1000 0 1.00124 0.261558
1000 0 1.00123 0.261953
1000 0 1.00124 0.261608
1008.59 9.49871e-09 1.00177 0.260581
1000 0 1.00124 0.261654
1000 0 1.00124 0.261498
1008.54 9.73859e-09 1.00177 0.260719
1000 0 1.00135 0.261554
1008.61 9.58902e-09 1.00177 0.26066
1008.66 9.48488e-09 1.00172 0.260748
1008.92 1.03185e-08 1.00182 0.259538
1000 0 1.00123 0.262064
1008.85 9.48738e-09 1.00179 0.261063
1008.6 9.77063e-09 1.00176 0.26087
1008.59 9.64881e-09 1.00177 0.260797
1008.88 1.02853e-08 1.00181 0.259208
1008.69 9.45141e-09 1.00166 0.26086
1008.92 1.03132e-08 1.00182 0.259395
1008.94 1.03363e-08 1.00183 0.259639
1008.76 1.01489e-08 1.00181 0.258282
1000 0 1.00123 0.262244
1000 0 1.00123 0.262196
1000 0 1.00124 0.261827
1000 0 1.00124 0.261924
1000 0 1.00124 0.261932
1000 0 1.00135 0.262071
1008.34 9.78974e-09 1.0017 0.261116
1000 0 1.00135 0.261891
1008.45 9.81612e-09 1.00171 0.261054
1000 0 1.00123 0.26195
1008.49 9.75285e-09 1.00176 0.261199
1008.54 9.78786e-09 1.00165 0.261024
1008.85 1.02652e-08 1.00181 0.259483
1008.59 9.79556e-09 1.00165 0.260861
1008.86 1.02711e-08 1.00181 0.259509
1000 0 1.00145 0.261753
1000 0 1.00145 0.262163
1000 0 1.00146 0.260947
1000 0 1.00146 0.261666
1008.56 9.75989e-09 1.00164 0.260916
1008.59 9.70734e-09 1.00165 0.26083
1008.63 9.63171e-09 1.00165 0.260784
1008.9 1.03051e-08 1.00183 0.259273
1000 0 1.00124 0.261924
1000 0 1.00146 0.261984
1008.35 9.77148e-09 1.0017 0.261151
1008.42 9.78693e-09 1.00164 0.261125
1000 0 1.00135 0.261505
1008.71 9.62167e-09 1.00166 0.260597
1008.48 9.75525e-09 1.00164 0.260886
1008.88 1.02733e-08 1.00182 0.259439
1008.91 1.03144e-08 1.00183 0.259325
1008.9 1.02902e-08 1.00182 0.259337
1008.72 1.00972e-08 1.0018 0.257583
1008.47 9.74473e-09 1.00175 0.261276
1008.52 9.76584e-09 1.00164 0.261253
1008.86 1.02675e-08 1.00181 0.259566
1008.86 1.02716e-08 1.00181 0.259522
1008.88 1.02836e-08 1.00182 0.25935
1008.69 1.00529e-08 1.0018 0.257863
1000 0 1.00123 0.261985
1008.71 1.00789e-08 1.0018 0.257551
1008.72 9.57065e-09 1.00178 0.260531
1008.93 1.03364e-08 1.00182 0.259393
1008.73 1.01176e-08 1.00181 0.257727
1008.7 1.00654e-08 1.0018 0.255865
1008.82 9.54465e-09 1.00178 0.261039
1008.95 1.03614e-08 1.00183 0.260991
1000 0 1.00124 0.261651
1000 0 1.00124 0.261551
1008.6 9.72085e-09 1.00177 0.260761
1000 0 1.00123 0.262047
1008.63 9.46322e-09 1.00177 0.260623
1008.58 9.56697e-09 1.00177 0.260652
1008.93 1.03228e-08 1.00182 0.259569
1000 0 1.00123 0.262117
1008.85 9.49635e-09 1.00178 0.26115
1008.51 9.78716e-09 1.00171 0.260843
1008.57 9.66883e-09 1.00171 0.260749
1008.89 1.0282e-08 1.00181 0.259206
1008.7 9.46743e-09 1.00178 0.26074
1008.91 1.0309e-08 1.00182 0.259436
1008.94 1.03329e-08 1.00183 0.259684
1008.76 1.01497e-08 1.00181 0.258205
1008.77 9.46399e-09 1.00178 0.260875
1008.93 9.51071e-09 1.00179 0.26118
1008.95 1.03571e-08 1.00183 0.261182
1008.87 1.02757e-08 1.00181 0.25929
1008.9 1.02991e-08 1.00182 0.259236
1008.7 1.00766e-08 1.0018 0.257331
1008.95 1.0348e-08 1.00183 0.260262
1008.74 1.01258e-08 1.00181 0.257814
1008.77 1.01711e-08 1.00181 0.258426
1008.74 1.01118e-08 1.00181 0.256914
1000 0 1.00123 0.262249
1000 0 1.00123 0.262218
1000 0 1.00123 0.262176
1008.89 9.55414e-09 1.00179 0.261161
1000 0 1.00124 0.262072
1000 0 1.00124 0.261763
1000 0 1.00124 0.261879
1008.57 9.7981e-09 1.00176 0.261147
1008.52 9.77158e-09 1.00176 0.261242
1000 0 1.00124 0.26195
1000 0 1.00124 0.261943
1008.47 9.77025e-09 1.00175 0.261215
1008.53 9.80529e-09 1.0017 0.26111
1008.88 1.02618e-08 1.00181 0.259483
1008.47 9.81254e-09 1.00176 0.261013
1008.88 1.02678e-08 1.00181 0.259498
1008.48 9.73952e-09 1.00175 0.261228
1008.85 1.02611e-08 1.00181 0.259448
1008.86 1.02692e-08 1.00181 0.259525
1008.68 1.00441e-08 1.00179 0.258144
1008.86 1.02723e-08 1.00181 0.259415
1008.68 1.00465e-08 1.0018 0.257875
1000 0 1.00124 0.261925
1000 0 1.00146 0.262227
1008.51 9.75291e-09 1.00175 0.261207
1008.54 9.76905e-09 1.00164 0.261022
1000 0 1.00123 0.261729
1008.67 9.59856e-09 1.00166 0.260861
1008.58 9.73923e-09 1.00164 0.260842
1008.87 1.02764e-08 1.00182 0.259373
1008.89 1.02936e-08 1.00182 0.259334
1008.92 1.03192e-08 1.00183 0.259201
1008.72 1.00968e-08 1.0018 0.257558
1008.43 9.76224e-09 1.00175 0.261245
1008.51 9.78334e-09 1.00164 0.261172
1008.88 1.0264e-08 1.00181 0.259531
1008.88 1.02684e-08 1.00182 0.259537
1000 0 1.00123 0.261969
1008.74 9.58955e-09 1.00172 0.260675
1008.92 1.03323e-08 1.00183 0.259412
1008.89 1.02805e-08 1.00182 0.259321
1008.68 1.00531e-08 1.0018 0.257741
1008.73 1.01181e-08 1.00181 0.257682
1008.7 1.00791e-08 1.0018 0.257578
1008.7 1.00657e-08 1.0018 0.255887
1008.83 9.55898e-09 1.00178 0.260934
1008.94 1.03583e-08 1.00183 0.260989
1008.86 1.02634e-08 1.00181 0.259488
1008.86 1.02687e-08 1.00181 0.259592
1008.68 1.00449e-08 1.0018 0.258311
1008.68 1.00467e-08 1.00179 0.25778
1008.69 1.0064e-08 1.0018 0.257552
1008.67 1.00325e-08 1.00179 0.256202
1008.77 9.54881e-09 1.00178 0.260827
1008.69 1.00517e-08 1.0018 0.255729
1008.95 1.03531e-08 1.00183 0.259909
1008.75 1.01417e-08 1.00181 0.258031
1008.71 1.00844e-08 1.0018 0.25609
1008.69 1.00605e-08 1.0018 0.254432
1008.95 1.03572e-08 1.00183 0.260709
1008.94 1.03634e-08 1.00183 0.261408
1008.78 1.01968e-08 1.00182 0.260204
1008.6 9.77063e-09 1.00176 0.2609
1000 0 1.00123 0.262141
1008.85 9.48738e-09 1.00178 0.261243
1008.59 9.64881e-09 1.00177 0.260676
1008.88 1.02853e-08 1.00181 0.25921
1008.69 9.45141e-09 1.00178 0.260889
1008.94 1.03363e-08 1.00183 0.259725
1008.92 1.03132e-08 1.00182 0.25947
1008.76 1.01489e-08 1.00181 0.258138
1008.77 9.47646e-09 1.00178 0.260998
1008.92 9.51851e-09 1.00179 0.261207
1008.95 1.03543e-08 1.00183 0.261228
1008.88 1.02726e-08 1.00181 0.259278
1008.9 1.02955e-08 1.00182 0.259252
1008.7 1.00771e-08 1.0018 0.257357
1008.95 1.03444e-08 1.00183 0.260276
1008.74 1.01264e-08 1.00181 0.257871
1008.77 1.01719e-08 1.00181 0.258438
1008.74 1.01119e-08 1.00181 0.256766
1009 9.53568e-09 1.00179 0.261163
1008.95 1.03509e-08 1.00183 0.26085
1008.95 1.03587e-08 1.00183 0.261594
1008.79 1.02082e-08 1.00182 0.260432
1008.69 1.00658e-08 1.0018 0.25739
1008.72 1.00982e-08 1.0018 0.257445
1008.68 1.00284e-08 1.0018 0.255164
1008.79 1.01913e-08 1.00182 0.259265
1008.72 1.00853e-08 1.0018 0.255808
1008.76 1.01362e-08 1.00181 0.257036
1008.73 1.00969e-08 1.00181 0.255789
1008.91 1.0362e-08 1.00182 0.261872
1009.13 9.58504e-09 1.0018 0.26103
1000 0 1.00124 0.262257
1000 0 1.00123 0.26223
1000 0 1.00123 0.262199
1008.97 9.57913e-09 1.00179 0.261211
1000 0 1.00124 0.262138
1008.9 9.5655e-09 1.00179 0.261077
1000 0 1.00123 0.262048
1008.59 9.79556e-09 1.00176 0.261037
1008.54 9.78786e-09 1.00176 0.261223
1008.86 1.02711e-08 1.00181 0.259488
1008.85 1.02652e-08 1.00181 0.259486
1008.49 9.75285e-09 1.00175 0.261242
1000 0 1.00123 0.261951
1008.27 9.75864e-09 1.00175 0.261234
1008.85 1.02579e-08 1.00181 0.259449
1008.86 1.02659e-08 1.00181 0.259522
1008.68 1.00443e-08 1.00179 0.258138
1008.88 1.02692e-08 1.00181 0.259399
1008.68 1.00468e-08 1.0018 0.257876
1008.85 1.02605e-08 1.00181 0.259456
1008.68 1.0047e-08 1.00179 0.258228
1008.68 1.0046e-08 1.00179 0.258049
1008.66 1.00148e-08 1.00179 0.25683
1008.68 1.00514e-08 1.0018 0.257618
1008.67 1.00313e-08 1.00179 0.256325
1008.47 9.74473e-09 1.00175 0.261217
1008.52 9.76584e-09 1.00164 0.261077
1008.86 1.02675e-08 1.00181 0.259494
1008.86 1.02716e-08 1.00182 0.259543
1000 0 1.00123 0.261942
1008.72 9.57065e-09 1.00166 0.260666
1008.93 1.03364e-08 1.00183 0.259415
1008.88 1.02836e-08 1.00182 0.259289
1008.69 1.00529e-08 1.0018 0.257613
1008.71 1.00789e-08 1.0018 0.257605
1008.73 1.01176e-08 1.00181 0.25763
1008.7 1.00654e-08 1.0018 0.255904
1008.82 9.54465e-09 1.00178 0.260838
1008.95 1.03614e-08 1.00183 0.260983
1008.85 1.02602e-08 1.00181 0.259468
1008.86 1.02656e-08 1.00181 0.259561
1008.68 1.00451e-08 1.0018 0.258272
1008.68 1.0047e-08 1.0018 0.257889
1008.77 9.56554e-09 1.00178 0.260729
1008.94 1.03489e-08 1.00183 0.259853
1008.75 1.0143e-08 1.00181 0.258094
1008.69 1.00642e-08 1.0018 0.257607
1008.67 1.00324e-08 1.00179 0.256062
1008.71 1.00848e-08 1.0018 0.255918
1008.69 1.00518e-08 1.0018 0.255731
1008.69 1.00606e-08 1.0018 0.254324
1008.94 1.03542e-08 1.00183 0.260754
1008.78 1.01972e-08 1.00182 0.260283
1008.94 1.03602e-08 1.00183 0.261343
1008.68 1.00464e-08 1.0018 0.258323
1008.68 1.00464e-08 1.0018 0.258119
1008.66 1.00211e-08 1.00179 0.257142
1008.66 1.00247e-08 1.00179 0.256167
1008.68 1.00405e-08 1.00179 0.255697
1008.67 1.00272e-08 1.00179 0.254333
1008.95 1.03572e-08 1.00183 0.260411
1008.68 1.0044e-08 1.0018 0.253803
1008.77 1.01694e-08 1.00181 0.258893
1008.74 1.01104e-08 1.00181 0.256104
1008.71 1.00698e-08 1.0018 0.254277
1008.69 1.00598e-08 1.0018 0.252605
1008.93 1.03634e-08 1.00183 0.261744
1008.78 1.01916e-08 1.00182 0.260233
1008.78 1.02002e-08 1.00182 0.260479
1008.79 1.01698e-08 1.00182 0.259689
1008.87 1.02757e-08 1.00181 0.25927
1008.93 9.51071e-09 1.00179 0.26122
1008.77 9.46399e-09 1.00178 0.261138
1008.95 1.03571e-08 1.00183 0.261281
1008.9 1.02991e-08 1.00182 0.259268
1008.7 1.00766e-08 1.0018 0.257378
1008.95 1.0348e-08 1.00183 0.260283
1008.77 1.01711e-08 1.00181 0.258424
1008.74 1.01258e-08 1.00181 0.257932
1008.74 1.01118e-08 1.00181 0.256619
1009 9.54267e-09 1.00179 0.261158
1008.95 1.0348e-08 1.00183 0.260851
1008.94 1.03563e-08 1.00183 0.261691
1008.79 1.02085e-08 1.00182 0.260394
1008.69 1.0066e-08 1.0018 0.257405
1008.72 1.00988e-08 1.0018 0.257475
1008.68 1.00285e-08 1.0018 0.255163
1008.79 1.01919e-08 1.00182 0.259292
1008.72 1.00856e-08 1.0018 0.255942
1008.76 1.01364e-08 1.00181 0.256894
1008.73 1.00972e-08 1.00181 0.255829
1009.07 9.5581e-09 1.0018 0.261101
1008.94 1.03587e-08 1.00183 0.261908
1008.79 1.02009e-08 1.00182 0.260101
1008.79 1.02096e-08 1.00182 0.260962
1008.8 1.01826e-08 1.00182 0.259483
1008.67 9.9917e-09 1.00179 0.255333
1008.7 1.00692e-08 1.0018 0.255144
1008.69 1.00793e-08 1.0018 0.253044
1008.78 1.01666e-08 1.00182 0.25765
1008.71 1.00741e-08 1.0018 0.253566
1008.74 1.00912e-08 1.00181 0.255352
1008.92 1.03599e-08 1.00183 0.261928
1008.78 1.02002e-08 1.00182 0.262177
1008.9 1.03641e-08 1.00182 0.261839
1008.91 1.03605e-08 1.00182 0.26188
1009.19 9.61234e-09 1.00168 0.261315
1009.13 9.5918e-09 1.00174 0.261258
1000 0 1.00148 0.261617
1000 0 1.00124 0.262245
1000 0 1.00124 0.262219
1009.06 9.61372e-09 1.0018 0.26124
1000 0 1.00124 0.262186
1008.97 9.58863e-09 1.00179 0.261165
1000 0 1.00124 0.262124
1008.89 9.55414e-09 1.00179 0.260999
1000 0 1.00123 0.262022
1008.86 1.02723e-08 1.00181 0.259383
1008.86 1.02692e-08 1.00181 0.259517
1008.68 1.00465e-08 1.0018 0.257872
1008.68 1.00441e-08 1.00179 0.258131
1008.85 1.02611e-08 1.00181 0.259449
1008.48 9.73952e-09 1.00175 0.261214
1008.88 1.02569e-08 1.00181 0.259454
1008.68 1.0047e-08 1.00179 0.258222
1008.68 1.00462e-08 1.00179 0.258033
1008.66 1.00145e-08 1.00179 0.256724
1008.68 1.00517e-08 1.0018 0.257613
1008.67 1.00312e-08 1.00179 0.256347
1008.68 1.00506e-08 1.00179 0.258266
1008.66 9.9912e-09 1.00179 0.25713
1008.66 1.00195e-08 1.00179 0.256448
1008.66 1.00156e-08 1.00179 0.25579
1008.67 1.00238e-08 1.00179 0.255896
1008.66 1.00019e-08 1.00179 0.254146
1008.86 1.02634e-08 1.00181 0.259453
1008.86 1.02687e-08 1.00181 0.259534
1008.68 1.00449e-08 1.0018 0.258229
1008.68 1.00467e-08 1.0018 0.257996
1008.77 9.54881e-09 1.00178 0.260638
1008.95 1.03531e-08 1.00183 0.259806
1008.75 1.01417e-08 1.00181 0.258168
1008.69 1.0064e-08 1.0018 0.257666
1008.67 1.00325e-08 1.00179 0.255923
1008.69 1.00517e-08 1.0018 0.255732
1008.71 1.00844e-08 1.0018 0.255764
1008.69 1.00605e-08 1.0018 0.254219
1008.95 1.03572e-08 1.00183 0.260796
1008.78 1.01968e-08 1.00182 0.260341
1008.94 1.03634e-08 1.00183 0.261292
1008.68 1.00464e-08 1.00179 0.258294
1008.68 1.00466e-08 1.0018 0.258072
1008.66 1.00208e-08 1.00179 0.257078
1008.66 1.00244e-08 1.00179 0.256233
1008.94 1.03532e-08 1.00183 0.260423
1008.77 1.01694e-08 1.00181 0.25889
1008.74 1.01119e-08 1.00181 0.256239
1008.68 1.00404e-08 1.0018 0.255801
1008.67 1.00268e-08 1.00179 0.254224
1008.71 1.00699e-08 1.0018 0.254131
1008.68 1.00439e-08 1.0018 0.253826
1008.69 1.00597e-08 1.0018 0.252559
1008.78 1.01926e-08 1.00182 0.26021
1008.79 1.01701e-08 1.00182 0.25967
1008.93 1.0361e-08 1.00183 0.26169
1008.78 1.02001e-08 1.00182 0.260559
1008.66 9.99434e-09 1.00179 0.257233
1008.66 1.00177e-08 1.00179 0.256777
1008.66 1.00241e-08 1.00179 0.256108
1008.66 1.00287e-08 1.00179 0.253923
1008.67 1.00319e-08 1.00179 0.254019
1008.67 1.00358e-08 1.00179 0.253405
1008.78 1.01851e-08 1.00182 0.259819
1008.68 1.00591e-08 1.00179 0.251856
1008.76 1.01435e-08 1.00181 0.257165
1008.73 1.00774e-08 1.00181 0.254054
1008.7 1.00905e-08 1.0018 0.252692
1008.68 1.0054e-08 1.0018 0.251971
1008.92 1.03638e-08 1.00183 0.261891
1008.78 1.02006e-08 1.00182 0.260943
1008.78 1.01648e-08 1.00182 0.259584
1008.8 1.01798e-08 1.00182 0.259684
1008.79 1.01715e-08 1.00182 0.259324
1009 9.53568e-09 1.00179 0.261137
1008.69 1.00658e-08 1.0018 0.257422
1008.95 1.03587e-08 1.00183 0.261806
1008.95 1.03509e-08 1.00183 0.260834
1008.79 1.02082e-08 1.00182 0.260358
1008.72 1.00982e-08 1.0018 0.257498
1008.68 1.00284e-08 1.0018 0.255162
1008.79 1.01913e-08 1.00182 0.259339
1008.76 1.01362e-08 1.00181 0.256708
1008.72 1.00853e-08 1.0018 0.256067
1008.73 1.00969e-08 1.00181 0.255867
1009.06 9.56483e-09 1.0018 0.261076
1008.94 1.03569e-08 1.00183 0.261973
1008.79 1.02019e-08 1.00182 0.260111
1008.79 1.02095e-08 1.00182 0.260975
1008.8 1.01827e-08 1.00182 0.259453
1008.67 9.99221e-09 1.00179 0.255298
1008.7 1.00691e-08 1.0018 0.255152
1008.69 1.00798e-08 1.0018 0.252975
1008.78 1.01664e-08 1.00182 0.257701
1008.71 1.00736e-08 1.0018 0.253713
1008.74 1.00917e-08 1.00181 0.255446
1008.93 1.03589e-08 1.00183 0.261969
1008.78 1.0206e-08 1.00182 0.2616
1008.79 1.01778e-08 1.00182 0.258765
1008.81 1.01923e-08 1.00182 0.259942
1008.8 1.01728e-08 1.00182 0.259069
1008.68 1.01533e-08 1.00179 0.253998
1008.69 9.96768e-09 1.0018 0.252356
1008.66 1.00688e-08 1.00179 0.250773
1008.77 1.01113e-08 1.00181 0.255902
1008.72 1.00867e-08 1.0018 0.253065
1008.92 1.03585e-08 1.00183 0.261941
1008.78 1.02016e-08 1.00182 0.262142
1008.78 1.02004e-08 1.00182 0.262169
1008.81 1.0185e-08 1.00182 0.261571
1008.78 1.01987e-08 1.00182 0.262152
1008.89 1.03664e-08 1.00182 0.261834
1008.9 1.03626e-08 1.00182 0.26184
1009.25 9.64807e-09 1.00169 0.261291
1008.91 1.0362e-08 1.00182 0.261888
1009.19 9.61847e-09 1.00168 0.261418
1000 0 1.00148 0.261608
1009.13 9.58504e-09 1.00168 0.261402
1000 0 1.00136 0.261773
1000 0 1.00124 0.262237
1009.13 9.6493e-09 1.0018 0.261229
1009.05 9.62124e-09 1.0018 0.261209
1000 0 1.00124 0.262206
1000 0 1.00124 0.262187
1008.97 9.57913e-09 1.00179 0.261111
1000 0 1.00123 0.262098
1008.68 1.00514e-08 1.0018 0.257606
1008.68 1.0046e-08 1.00179 0.258024
1008.67 1.00313e-08 1.00179 0.256375
1008.66 1.00148e-08 1.00179 0.256617
1008.68 1.0047e-08 1.00179 0.258217
1008.85 1.02605e-08 1.00181 0.259449
1008.68 1.00508e-08 1.00179 0.258268
1008.66 9.99127e-09 1.00179 0.257181
1008.66 1.00193e-08 1.00179 0.256449
1008.66 1.00155e-08 1.00179 0.255646
1008.67 1.00237e-08 1.00179 0.255876
1008.66 1.00017e-08 1.00179 0.254178
1008.65 9.97369e-09 1.00179 0.2574
1008.67 1.0029e-08 1.00179 0.256351
1008.66 1.00366e-08 1.00179 0.254652
1008.68 1.02666e-08 1.00179 0.254817
1008.67 1.00442e-08 1.00179 0.254625
1008.69 1.01899e-08 1.00179 0.252767
1008.68 1.00464e-08 1.00179 0.258263
1008.68 1.00464e-08 1.0018 0.258021
1008.66 1.00211e-08 1.00179 0.257021
1008.66 1.00247e-08 1.00179 0.256305
1008.95 1.03572e-08 1.00183 0.260425
1008.77 1.01694e-08 1.00181 0.25888
1008.74 1.01104e-08 1.00181 0.256372
1008.68 1.00405e-08 1.0018 0.255903
1008.67 1.00272e-08 1.00179 0.254116
1008.68 1.0044e-08 1.0018 0.253852
1008.71 1.00698e-08 1.0018 0.253951
1008.69 1.00598e-08 1.0018 0.252514
1008.78 1.01916e-08 1.00182 0.260199
1008.79 1.01698e-08 1.00182 0.259662
1008.93 1.03634e-08 1.00183 0.261635
1008.78 1.02002e-08 1.00182 0.260623
1008.66 9.99435e-09 1.00179 0.257237
1008.66 1.00178e-08 1.00179 0.256765
1008.66 1.00242e-08 1.00179 0.256095
1008.66 1.0029e-08 1.00179 0.254099
1008.78 1.01857e-08 1.00182 0.259781
1008.76 1.01433e-08 1.00181 0.257331
1008.73 1.00785e-08 1.00181 0.253947
1008.67 1.00322e-08 1.00179 0.254146
1008.66 1.00363e-08 1.00179 0.25331
1008.71 1.00905e-08 1.0018 0.25264
1008.68 1.00595e-08 1.00179 0.251868
1008.68 1.00542e-08 1.0018 0.251918
1008.78 1.01646e-08 1.00182 0.259559
1008.79 1.0171e-08 1.00182 0.259277
1008.8 1.018e-08 1.00182 0.259693
1008.92 1.03618e-08 1.00182 0.261838
1008.78 1.02006e-08 1.00182 0.260987
1008.67 1.00803e-08 1.00179 0.256247
1008.66 1.00092e-08 1.00179 0.255206
1008.65 1.00044e-08 1.00179 0.252557
1008.66 1.00518e-08 1.00179 0.252512
1008.78 1.01633e-08 1.00181 0.258745
1008.66 1.00356e-08 1.00179 0.249939
1008.75 1.00994e-08 1.00181 0.25543
1008.72 1.0121e-08 1.0018 0.251823
1008.7 1.0156e-08 1.0018 0.251339
1008.91 1.0366e-08 1.00182 0.26191
1008.78 1.02024e-08 1.00182 0.261333
1008.8 1.01787e-08 1.00182 0.260207
1008.79 1.01572e-08 1.00182 0.258972
1008.8 1.01775e-08 1.00182 0.259092
1008.78 1.01678e-08 1.00181 0.258683
1009.07 9.5581e-09 1.0018 0.261047
1008.94 1.03587e-08 1.00183 0.262043
1008.67 9.9917e-09 1.00179 0.255261
1008.79 1.02096e-08 1.00182 0.260985
1008.79 1.02009e-08 1.00182 0.260117
1008.8 1.01826e-08 1.00182 0.259422
1008.7 1.00692e-08 1.0018 0.255164
1008.69 1.00793e-08 1.0018 0.252917
1008.78 1.01666e-08 1.00182 0.257747
1008.74 1.00912e-08 1.00181 0.255521
1008.71 1.00741e-08 1.0018 0.253847
1008.93 1.03572e-08 1.00183 0.261997
1008.78 1.0206e-08 1.00182 0.261643
1008.79 1.01781e-08 1.00182 0.258817
1008.81 1.0192e-08 1.00182 0.259961
1008.8 1.01733e-08 1.00182 0.258964
1008.68 1.015e-08 1.00179 0.253942
1008.69 9.96972e-09 1.0018 0.252401
1008.66 1.00654e-08 1.00179 0.250696
1008.77 1.01121e-08 1.00181 0.255845
1008.72 1.00895e-08 1.0018 0.253054