# vtk DataFile Version 2.0
Wound Healing Simulation
ASCII
DATASET UNSTRUCTURED_GRID
POINTS 3012 float
69.9759 18.75 4
67.2507 60.3285 4
69.976 18.75 2
73.0099 25.446 4
71.1327 20.9142 4
68.6801 16.6661 4
67.8276 19.9248 3.98756
67.2507 60.3286 2
71.1327 54.0858 4
68.6801 58.3339 4
65.6939 62.2254 4
65.3141 59.004 3.98871
74.6784 42.3946 4
73.7221 47.2057 4
69.9759 18.75 0
73.0099 25.446 2
68.6801 16.6661 2
71.1327 20.9142 2
67.8282 19.926 2
74.6792 32.6053 4
73.7222 27.7943 4
72.1454 23.1494 4
70.6157 26.2225 3.98612
68.8879 21.9582 3.9872
67.2507 14.6715 4
66.6391 17.9693 3.98816
65.8032 21.0215 3.98238
67.2507 60.3285 0
71.1327 54.0858 2
68.6801 58.3339 2
65.694 62.2255 2
65.3145 59.0036 2
72.1454 51.8506 4
69.9759 56.25 4
68.8387 53.1129 3.98692
64.0165 64.0165 4
66.6128 57.1359 3.98839
63.8874 60.7689 3.99004
63.5054 57.7787 3.98408
60.3285 67.2507 4
74.6792 42.3947 2
73.7222 47.2057 2
74.9194 39.9526 4
74.2788 44.8158 4
72.1691 42.0854 3.98454
73.0099 49.554 4
71.2508 46.5972 3.98599
73.0099 25.446 0
71.1327 20.9142 0
68.6801 16.6661 0
67.8276 19.9248 0.0124362
74.6792 32.6053 2
73.7222 27.7943 2
67.2508 14.6715 2
72.1455 23.1494 2
70.6158 26.2233 2
66.6397 17.97 2
68.8882 21.9597 2
65.8034 21.0209 2
74.9197 35.0474 4
74.2794 30.1841 4
72.1858 32.9434 3.98508
71.2795 28.4324 3.98596
69.8175 24.0609 3.98672
68.3508 26.9519 3.97821
66.7682 22.9315 3.98103
65.694 12.7746 4
65.3255 16.1001 3.98919
64.7197 19.1887 3.98361
63.8963 22.0286 3.97935
71.1327 54.0858 0
65.6939 62.2254 0
68.6801 58.3339 0
65.3141 59.004 0.0112943
72.1455 51.8506 2
69.9759 56.25 2
68.8389 53.1114 2
64.0165 64.0165 2
66.6133 57.1351 2
63.8877 60.7687 2
63.5055 57.7795 2
62.2254 65.694 4
58.8947 65.416 3.99266
69.771 50.9878 3.98648
67.786 55.1685 3.98782
66.6554 52.2111 3.98071
62.3374 62.4299 3.99137
64.6669 56.0372 3.98408
62.2066 59.4122 3.98453
61.8311 56.6919 3.98163
58.3339 68.6801 4
60.3285 67.2508 2
73.7221 47.2057 0
74.6784 42.3946 0
74.9197 39.9526 2
74.2794 44.8159 2
72.1691 42.0857 2
73.0099 49.554 2
71.2508 46.5971 2
75 37.5 4
72.4059 39.8021 3.98358
71.7838 44.3524 3.98546
69.8069 41.7895 3.97696
70.5769 48.8122 3.98628
68.9164 46.0147 3.97796
74.6792 32.6053 0
73.7222 27.7943 0
67.2507 14.6715 0
72.1454 23.1494 0
70.6157 26.2225 0.0138827
68.8879 21.9582 0.012799
66.6391 17.9693 0.0118419
65.8032 21.0215 0.0176195
74.9197 35.0474 2
74.2794 30.1841 2
72.1857 32.9434 2
71.2796 28.4327 2
65.694 12.7745 2
65.3259 16.1002 2
69.8177 24.0621 2
68.3508 26.952 2
64.72 19.1878 2
66.7682 22.9312 2
63.8965 22.0278 2
72.4138 35.2241 3.98394
71.8051 30.6767 3.98583
69.8431 33.2687 3.97748
68.9699 29.0387 3.97804
67.6161 24.9117 3.97948
66.2001 27.6337 3.97515
64.0165 10.9835 4
64.765 23.8259 3.9779
63.8915 14.3239 3.99031
63.5182 17.4388 3.98489
62.9162 20.3109 3.98046
62.1044 22.9339 3.97772
60.6847 11.0953 3.99186
57.6132 11.44 3.98695
72.1454 51.8506 0
69.9759 56.25 0
68.8387 53.1129 0.0130768
64.0165 64.0165 0
63.8874 60.7689 0.00996274
66.6128 57.1359 0.0116137
63.5054 57.7787 0.0159159
62.2255 65.694 2
58.8949 65.4161 2
69.7711 50.9867 2
67.7865 55.1672 2
66.6553 52.2114 2
62.3377 62.4298 2
64.6671 56.0381 2
62.2066 59.4128 2
61.8311 56.6927 2
60.6695 63.979 3.99208
57.0253 66.7368 3.99318
57.5588 63.6972 3.98744
67.5127 50.1774 3.97926
65.7085 54.1771 3.98274
64.5464 51.3899 3.97715
60.7755 60.9452 3.98543
62.8298 55.0773 3.98178
60.6644 58.1707 3.98169
60.3381 55.7991 3.98059
56.25 69.9759 4
58.3339 68.6801 2
60.3285 67.2507 0
58.9218 9.65357 3.99242
62.2254 9.30607 4
73.0099 49.554 0
74.2788 44.8158 0
71.2508 46.5972 0.0140093
72.1691 42.0854 0.0154626
74.9194 39.9526 0
75 37.5 2
72.4059 39.8024 2
71.7838 44.3527 2
69.807 41.7896 2
70.577 48.8117 2
68.9164 46.0146 2
72.4892 37.512 3.98337
70.0428 39.6573 3.97546
69.434 43.9073 3.97776
67.6016 41.4984 3.97377
68.2705 48.1072 3.97844
66.7159 45.4413 3.97507
74.9197 35.0474 0
74.2794 30.1841 0
72.1858 32.9434 0.0149167
71.2795 28.4324 0.0140427
65.694 12.7746 0
65.3255 16.1001 0.0108103
69.8175 24.0609 0.0132806
68.3508 26.9519 0.0217924
66.7682 22.9315 0.0189661
64.7197 19.1887 0.0163854
63.8963 22.0286 0.0206516
72.4139 35.2241 2
71.8052 30.6768 2
69.8431 33.2688 2
68.97 29.0388 2
64.0165 10.9835 2
63.8917 14.324 2
63.5185 17.4379 2
67.616 24.9116 2
66.2002 27.6334 2
62.9166 20.31 2
64.765 23.8253 2
62.1047 22.9333 2
60.685 11.0953 2
57.6132 11.4393 2
70.0599 35.3923 3.9762
69.4708 31.1499 3.97812
67.6602 33.5906 3.97427
66.7778 29.622 3.97493
65.5309 25.6971 3.97629
64.153 28.2528 3.97418
62.3426 12.6522 3.99118
62.8671 24.6308 3.97642
62.2023 15.7763 3.98529
61.8216 18.6732 3.98193
61.2291 21.3297 3.97841
60.4388 23.716 3.97719
59.2475 12.7713 3.98561
55.875 10.2267 3.9884
56.4065 13.1025 3.98378
69.771 50.9878 0.0135214
62.2254 65.694 0
58.8947 65.416 0.00734425
67.786 55.1685 0.0121844
66.6554 52.2111 0.0192941
62.3374 62.4299 0.00862522
62.2066 59.4122 0.0154726
64.6669 56.0372 0.0159245
61.8311 56.6919 0.0183743
60.6698 63.9791 2
57.0255 66.7368 2
57.5587 63.6978 2
67.5125 50.1775 2
65.7086 54.1778 2
64.5464 51.3906 2
60.7755 60.946 2
62.8299 55.0782 2
60.6643 58.1715 2
60.3381 55.7998 2
55.0707 67.9336 3.99346
59.2208 62.3726 3.98609
55.805 64.9145 3.98885
56.3285 62.0982 3.98433
65.3394 49.4112 3.9759
63.716 53.2995 3.9797
62.4525 50.6591 3.97535
59.3372 59.5676 3.98326
61.0891 54.3211 3.98081
59.2967 57.0262 3.9797
59.2534 55.1976 3.98122
48.1031 68.5817 3.99024
50.9484 69.9331 3.99387
54.0858 71.1327 4
56.25 69.976 2
58.3339 68.6801 0
57.0589 8.33344 3.99292
60.3285 7.74928 4
58.9221 9.65351 2
62.2255 9.30602 2
70.5769 48.8122 0.0137187
71.7838 44.3524 0.0145387
68.9164 46.0147 0.0220386
69.8069 41.7895 0.0230366
72.4059 39.8021 0.0164213
75 37.5 0
72.4892 37.5122 2
70.0429 39.6573 2
69.4341 43.9073 2
67.6018 41.4985 2
68.2704 48.1072 2
66.7159 45.4416 2
70.1307 37.5217 3.97535
67.8368 39.5127 3.97223
67.2291 43.4711 3.97471
65.5614 41.2119 3.97284
66.0755 47.42 3.97549
64.6599 44.8517 3.97417
72.4138 35.2241 0.0160569
71.8051 30.6767 0.0141687
69.8431 33.2687 0.0225215
68.9699 29.0387 0.0219551
64.0165 10.9835 0
63.8915 14.3239 0.00969223
63.5182 17.4388 0.0151106
67.6161 24.9117 0.0205169
66.2001 27.6337 0.0248487
64.765 23.8259 0.0220968
62.9162 20.3109 0.019544
62.1044 22.9339 0.0222788
60.6847 11.0953 0.0081384
57.6132 11.44 0.0130516
70.0601 35.3924 2
69.4709 31.15 2
67.6603 33.5904 2
66.7779 29.6218 2
62.3429 12.6524 2
62.2024 15.7758 2
61.8219 18.6723 2
65.5309 25.6967 2
64.1531 28.2525 2
61.2296 21.3289 2
62.8673 24.6303 2
60.4392 23.7154 2
59.2475 12.7706 2
56.4065 13.1017 2
55.875 10.2259 2
67.8737 35.5476 3.97317
67.271 31.6216 3.9751
65.7038 33.9261 3.97307
64.6698 30.1896 3.97379
63.5463 26.41 3.97483
62.265 28.7733 3.97478
60.7772 14.2158 3.98519
61.0564 25.3293 3.97574
60.618 17.1161 3.98319
60.2323 19.8026 3.98004
59.674 22.2445 3.97702
58.9922 24.307 3.9776
54.038 9.13027 3.989
57.9122 14.3212 3.98351
54.7876 12.0016 3.985
55.3142 14.633 3.98246
67.5127 50.1774 0.0207361
57.0253 66.7368 0.00681709
60.6695 63.979 0.00791996
57.5588 63.6972 0.0125632
65.7085 54.1771 0.0172585
64.5464 51.3899 0.0228501
60.7755 60.9452 0.0145664
60.6644 58.1707 0.0183131
62.8298 55.0773 0.0182217
60.3381 55.7991 0.019412
55.0709 67.9337 2
59.2207 62.3734 2
55.8049 64.915 2
56.3284 62.0988 2
65.3393 49.4117 2
63.7161 53.3004 2
62.4525 50.6598 2
59.3372 59.5685 2
61.0892 54.322 2
59.2968 57.0269 2
59.2535 55.1983 2
53.0425 69.0014 3.99369
53.9672 66.0165 3.98947
57.8832 60.8794 3.98377
54.6846 63.2144 3.98553
55.2135 60.6263 3.98274
63.2035 48.6663 3.9744
61.754 52.5849 3.9782
60.2856 50.0288 3.97436
58.0233 58.2738 3.98116
59.3403 53.9612 3.97994
58.1358 55.8276 3.97776
50.1097 67.8597 3.99005
47.4637 66.5861 3.98797
46.0569 69.1613 3.99046
48.1031 68.5821 2
48.8026 70.7243 3.99403
50.9486 69.9331 2
51.8506 72.1454 4
54.0858 71.1327 2
56.25 69.9759 0
55.1031 7.13804 3.99313
58.3339 6.31992 4
57.0591 8.33331 2
60.3286 7.74926 2
58.9218 9.65357 0.00757775
62.2254 9.30607 0
68.2705 48.1072 0.0215566
69.434 43.9073 0.0222353
66.7159 45.4413 0.0249306
67.6016 41.4984 0.0262256
70.0428 39.6573 0.0245448
72.4892 37.512 0.0166251
70.1308 37.5218 2
67.837 39.5128 2
67.2293 43.4713 2
65.5616 41.2121 2
66.0754 47.4203 2
64.6599 44.852 2
67.933 37.5223 3.97203
65.7907 39.3714 3.97126
65.1829 43.0281 3.97376
63.7622 40.9327 3.9725
63.9739 46.7207 3.97439
62.8161 44.2216 3.97473
70.0599 35.3923 0.0238032
69.4708 31.1499 0.0218833
67.6602 33.5906 0.025727
66.7778 29.622 0.0250742
62.3426 12.6522 0.00881638
62.2023 15.7763 0.0147059
61.8216 18.6732 0.0180672
65.5309 25.6971 0.0237102
64.153 28.2528 0.0258177
62.8671 24.6308 0.0235832
61.2291 21.3297 0.0215865
60.4388 23.716 0.022807
59.2475 12.7713 0.0143902
56.4065 13.1025 0.0162157
55.875 10.2267 0.0116048
67.874 35.5476 2
67.2711 31.6215 2
65.704 33.9258 2
64.67 30.1894 2
60.7772 14.2151 2
60.6181 17.1153 2
60.2328 19.8017 2
63.5464 26.4097 2
62.2651 28.773 2
59.6745 22.2438 2
61.0567 25.3288 2
58.9927 24.3065 2
57.9121 14.3205 2
55.3141 14.6321 2
54.0379 9.12965 2
54.7876 12.0007 2
65.8805 35.6666 3.97206
65.1935 32.1519 3.97386
64.2912 34.2488 3.97303
62.6031 30.6318 3.97347
61.6602 27.0665 3.97399
60.8589 29.1339 3.97578
59.3136 15.658 3.98357
59.3433 25.7855 3.97788
59.1301 18.3417 3.98207
58.7509 20.8386 3.97804
58.2983 23.077 3.97575
57.9823 24.6507 3.97805
52.1126 8.149 3.98935
53.0584 11.0082 3.98603
56.6789 15.7295 3.98269
53.8106 13.6678 3.98332
54.3783 15.9839 3.98222
55.0707 67.9336 0.00654371
65.3394 49.4112 0.0240998
55.805 64.9145 0.0111461
59.2208 62.3726 0.0139131
56.3285 62.0982 0.0156682
63.716 53.2995 0.0202981
62.4525 50.6591 0.0246496
59.3372 59.5676 0.0167382
59.2967 57.0262 0.0202991
61.0891 54.3211 0.0191856
59.2534 55.1976 0.0187771
53.0428 69.0014 2
53.9671 66.0169 2
57.8831 60.8801 2
54.6845 63.215 2
55.2134 60.6271 2
63.2035 48.6668 2
61.7541 52.5858 2
60.2856 50.0295 2
58.0234 58.2746 2
59.3405 53.962 2
58.1358 55.8282 2
52.0707 67.0028 3.98983
52.9537 64.2244 3.98661
56.6516 59.5001 3.98252
[...]
POINT_DATA 3012
SCALARS Jp_lamdaP float 4
LOOKUP_TABLE default
1 1 1 1
1 1 1 1
1 1 1 1
0.999994 1 1 0.999994
1 1 1 1
1 1 1 1
0.999909 1 1 0.999909
1 1 1 1
1 1 1 1
1 1 1 1
1 1 1 1
0.999977 1 1 0.999977
0.999983 1 1 0.999983
0.999996 1 1 0.999996
1 1 1 1
0.999995 1 1 0.999995
1 1 1 1
1 1 1 1
0.99991 1 1 0.99991
1 1 1 1
0.999992 1 1 0.999992
0.999998 1 1 0.999998
0.999841 1 1 0.999841
0.999891 1 1 0.999891
1 1 1 1
0.99993 1 1 0.99993
0.999736 1 1 0.999736
1 1 1 1
1 1 1 1
1 1 1 1
1 1 1 1
0.99998 1 1 0.99998
0.999998 1 1 0.999998
1 1 1 1
0.999931 1 1 0.999931
1 1 1 1
0.999966 1 1 0.999966
0.999988 1 1 0.999988
0.999777 1 1 0.999777
1 1 1 1
1 1 1 1
0.999997 1 1 0.999997
1 1 1 1
0.999992 1 1 0.999992
0.999843 1 1 0.999843
1 1 1 1
0.999895 1 1 0.999895
0.999996 1 1 0.999996
1 1 1 1
1 1 1 1
0.999911 1 1 0.999911
0.999992 1 1 0.999992
0.999993 1 1 0.999993
1 1 1 1
0.999999 1 1 0.999999
0.999843 1 1 0.999843
0.999931 1 1 0.999931
0.999892 1 1 0.999892
0.99973 1 1 0.99973
1 1 1 1
0.999989 1 1 0.999989
0.999862 1 1 0.999862
0.999827 1 1 0.999827
0.999868 1 1 0.999868
0.999573 1 1 0.999573
0.99967 1 1 0.99967
1 1 1 1
0.999955 1 1 0.999955
0.999783 1 1 0.999783
0.999515 1 1 0.999515
1 1 1 1
1 1 1 1
1 1 1 1
0.999983 1 1 0.999983
1 1 1 1
1 1 1 1
0.999936 1 1 0.999936
1 1 1 1
0.999969 1 1 0.999969
0.999992 1 1 0.999992
0.999776 1 1 0.999776
1 1 1 1
1 1 1 1
0.999914 1 1 0.999914
0.999949 1 1 0.999949
0.999642 1 1 0.999642
0.999998 1 1 0.999998
0.999755 1 1 0.999755
0.999799 1 1 0.999799
0.999616 1 1 0.999616
1 1 1 1
1 1 1 1
1 1 1 1
1 1 1 1
1 1 1 1
0.999994 1 1 0.999994
0.999854 1 1 0.999854
0.999998 1 1 0.999998
0.999896 1 1 0.999896
1 1 1 1
0.99982 1 1 0.99982
0.999879 1 1 0.999879
0.999437 1 1 0.999437
0.999906 1 1 0.999906
0.999501 1 1 0.999501
0.999986 1 1 0.999986
0.999994 1 1 0.999994
1 1 1 1
0.999999 1 1 0.999999
0.999845 1 1 0.999845
0.999893 1 1 0.999893
0.999932 1 1 0.999932
0.999724 1 1 0.999724
1 1 1 1
0.99999 1 1 0.99999
0.999826 1 1 0.999826
0.999827 1 1 0.999827
1 1 1 1
0.99997 1 1 0.99997
0.999869 1 1 0.999869
0.999559 1 1 0.999559
0.999776 1 1 0.999776
0.999679 1 1 0.999679
0.999516 1 1 0.999516
0.999829 1 1 0.999829
0.999821 1 1 0.999821
0.999476 1 1 0.999476
0.999519 1 1 0.999519
0.999608 1 1 0.999608
0.999354 1 1 0.999354
1 1 1 1
0.999478 1 1 0.999478
0.999997 1 1 0.999997
0.999795 1 1 0.999795
0.999552 1 1 0.999552
0.999426 1 1 0.999426
1 1 1 1
0.999868 1 1 0.999868
1 1 1 1
1 1 1 1
0.999941 1 1 0.999941
1 1 1 1
0.999995 1 1 0.999995
0.999972 1 1 0.999972
0.999775 1 1 0.999775
1 1 1 1
1 1 1 1
0.999918 1 1 0.999918
0.999955 1 1 0.999955
0.999643 1 1 0.999643
0.999999 1 1 0.999999
0.999756 1 1 0.999756
0.999799 1 1 0.999799
0.99961 1 1 0.99961
1 1 1 1
1 1 1 1
0.999883 1 1 0.999883
0.999581 1 1 0.999581
0.999709 1 1 0.999709
0.999455 1 1 0.999455
0.999829 1 1 0.999829
0.999591 1 1 0.999591
0.999628 1 1 0.999628
0.999546 1 1 0.999546
1 1 1 1
1 1 1 1
1 1 1 1
1 1 1 1
1 1 1 1
1 1 1 1
1 1 1 1
0.999896 1 1 0.999896
0.999852 1 1 0.999852
1 1 1 1
1 1 1 1
0.999821 1 1 0.999821
0.99988 1 1 0.99988
0.999438 1 1 0.999438
0.999906 1 1 0.999906
0.999501 1 1 0.999501
0.999812 1 1 0.999812
0.999399 1 1 0.999399
0.999473 1 1 0.999473
0.999255 1 1 0.999255
0.999534 1 1 0.999534
0.999324 1 1 0.999324
1 1 1 1
0.999992 1 1 0.999992
0.99979 1 1 0.99979
0.999828 1 1 0.999828
1 1 1 1
0.999985 1 1 0.999985
0.999871 1 1 0.999871
0.999544 1 1 0.999544
0.999689 1 1 0.999689
0.999769 1 1 0.999769
0.999517 1 1 0.999517
0.999827 1 1 0.999827
0.999821 1 1 0.999821
0.999448 1 1 0.999448
0.999528 1 1 0.999528
1 1 1 1
0.999995 1 1 0.999995
0.999807 1 1 0.999807
0.999609 1 1 0.999609
0.999337 1 1 0.999337
0.999549 1 1 0.999549
0.999485 1 1 0.999485
0.999428 1 1 0.999428
1 1 1 1
0.999869 1 1 0.999869
0.999406 1 1 0.999406
0.999503 1 1 0.999503
0.999281 1 1 0.999281
0.999285 1 1 0.999285
0.999431 1 1 0.999431
0.999273 1 1 0.999273
1 1 1 1
0.999394 1 1 0.999394
0.999815 1 1 0.999815
0.9996 1 1 0.9996
0.99946 1 1 0.99946
0.999401 1 1 0.999401
0.999839 1 1 0.999839
0.99991 1 1 0.99991
0.999664 1 1 0.999664
0.999921 1 1 0.999921
1 1 1 1
1 1 1 1
0.99996 1 1 0.99996
0.999644 1 1 0.999644
1 1 1 1
0.999798 1 1 0.999798
0.999756 1 1 0.999756
0.999605 1 1 0.999605
1 1 1 1
1 1 1 1
0.999883 1 1 0.999883
0.999581 1 1 0.999581
0.99971 1 1 0.99971
0.999455 1 1 0.999455
0.999829 1 1 0.999829
0.999597 1 1 0.999597
0.999627 1 1 0.999627
0.999538 1 1 0.999538
1 1 1 1
0.999855 1 1 0.999855
0.999915 1 1 0.999915
0.999692 1 1 0.999692
0.999395 1 1 0.999395
0.999538 1 1 0.999538
0.999362 1 1 0.999362
0.999655 1 1 0.999655
0.999522 1 1 0.999522
0.999522 1 1 0.999522
0.999486 1 1 0.999486
0.999978 1 1 0.999978
1 1 1 1
1 1 1 1
1 1 1 1
1 1 1 1
1 1 1 1
1 1 1 1
1 1 1 1
1 1 1 1
0.999908 1 1 0.999908
0.999879 1 1 0.999879
0.999501 1 1 0.999501
0.999438 1 1 0.999438
0.999823 1 1 0.999823
1 1 1 1
0.999811 1 1 0.999811
0.999399 1 1 0.999399
0.999473 1 1 0.999473
0.999254 1 1 0.999254
0.999535 1 1 0.999535
0.999324 1 1 0.999324
0.999388 1 1 0.999388
0.999215 1 1 0.999215
0.999291 1 1 0.999291
0.999201 1 1 0.999201
0.999356 1 1 0.999356
0.999263 1 1 0.999263
0.999825 1 1 0.999825
0.999822 1 1 0.999822
0.99942 1 1 0.99942
0.999538 1 1 0.999538
1 1 1 1
0.999993 1 1 0.999993
0.999819 1 1 0.999819
0.999611 1 1 0.999611
0.999321 1 1 0.999321
0.999492 1 1 0.999492
0.999546 1 1 0.999546
0.999429 1 1 0.999429
1 1 1 1
0.999869 1 1 0.999869
0.999397 1 1 0.999397
0.999503 1 1 0.999503
0.999274 1 1 0.999274
0.999303 1 1 0.999303
0.999999 1 1 0.999999
0.999815 1 1 0.999815
0.999611 1 1 0.999611
0.999431 1 1 0.999431
0.999269 1 1 0.999269
0.999448 1 1 0.999448
0.999394 1 1 0.999394
0.9994 1 1 0.9994
0.99984 1 1 0.99984
0.99966 1 1 0.99966
0.999909 1 1 0.999909
0.99925 1 1 0.99925
0.999291 1 1 0.999291
0.999188 1 1 0.999188
0.999221 1 1 0.999221
0.999344 1 1 0.999344
0.999275 1 1 0.999275
0.999826 1 1 0.999826
0.999378 1 1 0.999378
0.999656 1 1 0.999656
0.999494 1 1 0.999494
0.999383 1 1 0.999383
0.999425 1 1 0.999425
0.999946 1 1 0.999946
0.999665 1 1 0.999665
0.999669 1 1 0.999669
0.999585 1 1 0.999585
0.999582 1 1 0.999582
1 1 1 1
1 1 1 1
0.999883 1 1 0.999883
0.999712 1 1 0.999712
0.999455 1 1 0.999455
0.999829 1 1 0.999829
0.999626 1 1 0.999626
0.999603 1 1 0.999603
0.999531 1 1 0.999531
1 1 1 1
0.999855 1 1 0.999855
0.999916 1 1 0.999916
0.999691 1 1 0.999691
0.999394 1 1 0.999394
0.999539 1 1 0.999539
0.999362 1 1 0.999362
0.999656 1 1 0.999656
0.99953 1 1 0.99953
0.999519 1 1 0.999519
0.999504 1 1 0.999504
1 1 1 1
0.999941 1 1 0.999941
0.999677 1 1 0.999677
0.999717 1 1 0.999717
0.999582 1 1 0.999582
0.999312 1 1 0.999312
0.999452 1 1 0.999452
0.999329 1 1 0.999329
0.999541 1 1 0.999541
0.999477 1 1 0.999477
0.999411 1 1 0.999411
0.99997 1 1 0.99997
0.999828 1 1 0.999828
0.999985 1 1 0.999985
0.999981 1 1 0.999981
1 1 1 1
1 1 1 1
1 1 1 1
1 1 1 1
1 1 1 1
1 1 1 1
1 1 1 1
1 1 1 1
1 1 1 1
1 1 1 1
1 1 1 1
0.999535 1 1 0.999535
0.999473 1 1 0.999473
0.999324 1 1 0.999324
0.999254 1 1 0.999254
0.999399 1 1 0.999399
0.999811 1 1 0.999811
0.999388 1 1 0.999388
0.999215 1 1 0.999215
0.999292 1 1 0.999292
0.999197 1 1 0.999197
0.999355 1 1 0.999355
0.999263 1 1 0.999263
0.999202 1 1 0.999202
0.999163 1 1 0.999163
0.999229 1 1 0.999229
0.999188 1 1 0.999188
0.99929 1 1 0.99929
0.999286 1 1 0.999286
0.999387 1 1 0.999387
0.999503 1 1 0.999503
0.999268 1 1 0.999268
0.99932 1 1 0.99932
0.999999 1 1 0.999999
0.999815 1 1 0.999815
0.999622 1 1 0.999622
0.99943 1 1 0.99943
0.999265 1 1 0.999265
0.999394 1 1 0.999394
0.999436 1 1 0.999436
0.999399 1 1 0.999399
0.999841 1 1 0.999841
0.999657 1 1 0.999657
0.999908 1 1 0.999908
0.999236 1 1 0.999236
0.99929 1 1 0.99929
0.99918 1 1 0.99918
0.999224 1 1 0.999224
0.999826 1 1 0.999826
0.999655 1 1 0.999655
0.999506 1 1 0.999506
0.99935 1 1 0.99935
0.999282 1 1 0.999282
0.999373 1 1 0.999373
0.999378 1 1 0.999378
0.99943 1 1 0.99943
0.999666 1 1 0.999666
0.999575 1 1 0.999575
0.999944 1 1 0.999944
0.999675 1 1 0.999675
0.999154 1 1 0.999154
0.999197 1 1 0.999197
0.999143 1 1 0.999143
0.999211 1 1 0.999211
0.999344 1 1 0.999344
0.999303 1 1 0.999303
0.999669 1 1 0.999669
0.999431 1 1 0.999431
0.999559 1 1 0.999559
0.999407 1 1 0.999407
0.999331 1 1 0.999331
0.999428 1 1 0.999428
0.999964 1 1 0.999964
0.99971 1 1 0.99971
0.999589 1 1 0.999589
0.999569 1 1 0.999569
0.999544 1 1 0.999544
1 1 1 1
0.999393 1 1 0.999393
0.999917 1 1 0.999917
0.999854 1 1 0.999854
0.99969 1 1 0.99969
0.99954 1 1 0.99954
0.999363 1 1 0.999363
0.999656 1 1 0.999656
0.999516 1 1 0.999516
0.999537 1 1 0.999537
0.999521 1 1 0.999521
1 1 1 1
0.999943 1 1 0.999943
0.999677 1 1 0.999677
0.999717 1 1 0.999717
0.999578 1 1 0.999578
0.999311 1 1 0.999311
0.999452 1 1 0.999452
0.999325 1 1 0.999325
0.999543 1 1 0.999543
0.999482 1 1 0.999482
0.999419 1 1 0.999419
0.999958 1 1 0.999958
0.999748 1 1 0.999748
0.999566 1 1 0.999566
0.999597 1 1 0.999597
0.999528 1 1 0.999528
0.999293 1 1 0.999293
0.99941 1 1 0.99941
0.99937 1 1 0.99937
0.999439 1 1 0.999439
0.999356 1 1 0.999356
0.999972 1 1 0.999972
0.999784 1 1 0.999784
0.999817 1 1 0.999817
0.999713 1 1 0.999713
0.999839 1 1 0.999839
0.99999 1 1 0.99999
0.999987 1 1 0.999987
1 1 1 1
0.999983 1 1 0.999983
1 1 1 1
1 1 1 1
1 1 1 1
1 1 1 1
1 1 1 1
1 1 1 1
1 1 1 1
1 1 1 1
1 1 1 1
1 1 1 1
1 1 1 1
0.999355 1 1 0.999355
0.999292 1 1 0.999292
0.999263 1 1 0.999263
0.999194 1 1 0.999194
0.999215 1 1 0.999215
0.999387 1 1 0.999387
0.999202 1 1 0.999202
0.999158 1 1 0.999158
0.999229 1 1 0.999229
0.999187 1 1 0.999187
0.999288 1 1 0.999288
0.999286 1 1 0.999286
0.999138 1 1 0.999138
0.999316 1.00017 1 0.999147
0.999226 1 1 0.999226
0.999179 1 1 0.999179
0.999295 1 1 0.999295
0.999307 1 1 0.999307
0.999222 1 1 0.999222
0.99929 1 1 0.99929
0.999172 1 1 0.999172
0.999228 1 1 0.999228
0.999827 1 1 0.999827
0.999654 1 1 0.999654
0.999519 1 1 0.999519
0.999355 1 1 0.999355
0.999288 1 1 0.999288
0.999379 1 1 0.999379
0.999363 1 1 0.999363
0.999435 1 1 0.999435
0.999668 1 1 0.999668
0.999566 1 1 0.999566
0.999941 1 1 0.999941
0.99968 1 1 0.99968
0.999154 1 1 0.999154
0.9992 1 1 0.9992
0.999143 1 1 0.999143
0.999213 1 1 0.999213
0.999669 1 1 0.999669
0.999569 1 1 0.999569
0.999406 1 1 0.999406
0.99934 1 1 0.99934
0.999328 1 1 0.999328
0.999325 1 1 0.999325
0.999433 1 1 0.999433
0.999445 1 1 0.999445
0.99959 1 1 0.99959
0.999541 1 1 0.999541
0.999567 1 1 0.999567
0.999948 1 1 0.999948
0.999716 1 1 0.999716
0.99912 1 1 0.99912
0.999134 1 1 0.999134
0.999231 1 1 0.999231
0.999382 1 1 0.999382
0.999598 1 1 0.999598
0.999482 1 1 0.999482
0.999493 1 1 0.999493
0.999293 1 1 0.999293
0.999285 1 1 0.999285
0.999948 1 1 0.999948
0.999776 1 1 0.999776
0.999603 1 1 0.999603
0.999562 1 1 0.999562
0.999492 1 1 0.999492
0.999513 1 1 0.999513
1 1 1 1
0.999945 1 1 0.999945
0.999309 1 1 0.999309
0.999716 1 1 0.999716
0.999676 1 1 0.999676
0.999575 1 1 0.999575
0.999453 1 1 0.999453
0.999322 1 1 0.999322
0.999544 1 1 0.999544
0.999428 1 1 0.999428
0.999487 1 1 0.999487
0.999961 1 1 0.999961
0.999748 1 1 0.999748
0.999572 1 1 0.999572
0.999596 1 1 0.999596
0.99952 1 1 0.99952
0.999291 1 1 0.999291
0.999407 1 1 0.999407
0.999375 1 1 0.999375
0.999432 1 1 0.999432
0.999342 1 1 0.999342
0.999777 1 1 0.999777
0.999603 1 1 0.999603
0.999491 1 1 0.999491
0.999509 1 1 0.999509
0.999475 1 1 0.999475
0.999405 1 1 0.999405
0.999331 1 1 0.999331
0.999359 1 1 0.999359
0.999407 1 1.00004 0.999362
0.999219 1 1 0.999219
0.999975 1 1 0.999975
0.999793 1 1 0.999793
0.999655 1 1 0.999655
0.999806 1 1 0.999806
0.999839 1 1 0.999839
0.999697 1 1 0.999697
0.999611 1 1 0.999611
0.999693 1 1 0.999693
0.999849 1 1 0.999849
0.999992 1 1 0.999992
0.999991 1 1 0.999991
1 1 1 1
0.999988 1 1 0.999988
1 1 1 1
1 1 1 1
1 1 1 1
1 1 1 1
1 1 1 1
1 1 1 1
1 1 1 1
1 1 1 1
1 1 1 1
1 1 1 1
1 1 1 1
0.999287 1 1 0.999287
0.99923 1 1 0.99923
0.999285 1 1 0.999285
0.999185 1 1 0.999185
0.999152 1 1 0.999152
0.999202 1 1 0.999202
0.999136 1 1 0.999135
0.999255 1.00011 1 0.99915
0.99922 1 1 0.99922
0.999173 1 1 0.999173
0.999295 1 1 0.999295
0.999321 1 1 0.999321
0.999474 1.00035 1 0.999124
0.99942 1.00026 1 0.999158
0.999223 1 1 0.999223
0.99937 1 1 0.99937
0.999155 1 1 0.999155
0.999202 1 1 0.999202
0.999142 1 1 0.999142
0.999214 1 1 0.999214
0.999669 1 1 0.999669
0.999579 1 1 0.999579
0.999405 1 1 0.999405
0.999335 1 1 0.999335
0.999353 1 1 0.999353
0.999434 1 1 0.999434
0.99932 1 1 0.99932
0.999461 1 1 0.999461
0.99959 1 1 0.99959
0.999538 1 1 0.999538
0.999565 1 1 0.999565
0.999931 1 1 0.999931
0.999721 1 1 0.999721
0.999124 1 1 0.999121
0.999139 1 1 0.999139
0.999242 1 1 0.999241
0.999597 1 1 0.999597
0.999506 1 1 0.999506
0.99929 1 1 0.99929
0.999372 1 1 0.999372
0.999309 1 1 0.999309
0.999479 1 1 0.999479
0.999948 1 1 0.999948
0.999561 1 1 0.999561
0.99952 1 1 0.99952
0.999492 1 1 0.999492
0.999608 1 1 0.999608
0.999764 1 1 0.999764
0.999155 1.00004 1 0.999116
0.999124 1 1 0.999124
0.999312 1.00003 1 0.999281
0.999494 1.00005 1 0.999447
0.999555 1 1 0.999555
0.999352 1 1 0.999352
0.99937 1 1 0.99937
0.999255 1 1.00005 0.999204
0.999961 1 1 0.999961
0.99981 1 1 0.99981
0.999647 1 1 0.999647
0.999484 1 1 0.999484
0.999523 1 1 0.999523
0.999462 1 1 0.999462
0.999963 1 1 0.999963
0.999748 1 1 0.999748
0.99929 1 1 0.99929
0.999595 1 1 0.999595
0.999578 1 1 0.999578
0.999513 1 1 0.999513
0.999404 1 1 0.999404
0.99938 1 1 0.99938
0.999426 1 1 0.999426
0.999327 1 1 0.999327
0.999777 1 1 0.999777
0.999608 1 1 0.999608
0.999501 1 1 0.999501
0.999514 1 1 0.999514
0.99948 1 1 0.99948
0.999405 1 1 0.999405
0.999335 1 1 0.999335
0.999398 1 1 0.999398
0.999363 1 1.00001 0.999353
0.999201 1 1 0.999201
0.999632 1 1 0.999632
0.999499 1 1 0.999499
0.999438 1 1.00002 0.999419
0.999434 1 1 0.999434
0.999556 1.00018 1 0.999378
0.999827 1.00052 0.999872 0.999434
0.999205 1 1 0.999205
1.00064 1 1.00145 0.999187
0.999801 1 1 0.999801
0.999663 1 1 0.999663
0.999577 1 1 0.999577
0.999839 1 1 0.999839
0.99968 1 1 0.99968
0.999849 1 1 0.999849
0.999598 1 1 0.999598
0.999699 1 1 0.999699
0.99953 1 1 0.99953
0.999597 1 1 0.999597
0.999702 1 1 0.999702
0.999854 1 1 0.999854
0.999992 1 1 0.999992
0.999992 1 1 0.999992
1 1 1 1
0.999991 1 1 0.999991
1 1 1 1
1 1 1 1
1 1 1 1
1 1 1 1
1 1 1 1
1 1 1 1
1 1 1 1
1 1 1 1
1 1 1 1
1 1 1 1
1 1 1 1
0.999295 1 1 0.999295
0.999214 1 1 0.999214
0.999336 1 1 0.999336
0.999168 1 1 0.999168
0.999177 1.00002 1 0.999152
0.999133 1 1 0.999133
0.999392 1.00026 1 0.999128
0.999391 1.00023 1 0.999158
0.99923 1 1 0.99923
0.999365 1 1 0.999365
0.999626 1.00049 1 0.999139
0.999588 1.00039 1 0.999195
0.999291 1 1 0.999291
0.999123 1 1 0.999123
0.999144 1 1 0.999144
0.99926 1.00001 1 0.99925
0.999596 1 1 0.999596
0.999518 1 1 0.999518
0.999287 1 1 0.999287
0.999362 1 1 0.999362
0.999477 1 1 0.999477
0.999333 1 1 0.999333
0.99956 1 1 0.99956
0.999528 1 1 0.999528
0.999491 1 1 0.999491
0.999949 1 1 0.999949
0.999613 1 1 0.999613
0.999752 1 1 0.999752
0.999225 1.00011 1 0.999118
0.999121 1 1 0.999121
0.999287 1.00002 1 0.999268
0.999553 1 1 0.999553
0.99939 1 1 0.99939
0.999284 1 1.00008 0.999209
0.999785 1.00033 1 0.999456
0.99935 1 1 0.99935
0.999973 1 1 0.999973
0.999811 1 1 0.999811
0.999522 1 1 0.999522
0.999468 1 1 0.999468
0.999489 1 1 0.999489
0.999638 1 1 0.999638
0.999374 1.00024 1 0.999139
0.999367 1.00023 1 0.999139
1.00016 1.00086 0.999905 0.999399
1.00039 1.00092 1 0.999464
0.999489 1 1 0.999489
1.00042 1 1.00127 0.999154
0.9994 1 1.00012 0.99928
0.999995 1 1 0.999995
0.999878 1 1 0.999878
0.999814 1 1 0.999814
0.99966 1 1 0.99966
0.999524 1 1 0.999524
0.999407 1 1 0.999407
0.999504 1 1 0.999504
0.999441 1 1 0.999441
0.999777 1 1 0.999777
0.999612 1 1 0.999612
0.999404 1 1 0.999404
0.999519 1 1 0.999519
0.999511 1 1 0.999511
0.999484 1 1 0.999484
0.99934 1 1 0.99934
0.999437 1 1 0.999437
0.999345 1 1 0.999345
0.999183 1 1 0.999183
0.999628 1 1 0.999628
0.999508 1 1 0.999508
0.999451 1 1.00002 0.999428
0.999441 1 1 0.999441
0.99946 1.00009 1 0.999371
0.999644 1.00026 0.999949 0.999432
0.999224 1 1 0.999224
1.00026 1 1.00108 0.999179
0.999547 1 1 0.999547
0.999372 1.00008 1 0.999292
0.999435 1 1 0.999435
0.99952 1 1.00018 0.999337
1.0011 1.00196 0.999722 0.999416
0.999631 1.00044 1 0.999189
1.00138 1 1.00227 0.999107
0.999671 1 1 0.999671
0.999577 1 1 0.999577
0.999503 1 1 0.999503
0.999849 1 1 0.999849
0.999705 1 1 0.999705
0.999586 1 1 0.999586
0.999854 1 1 0.999854
0.999701 1 1 0.999701
0.99952 1 1 0.99952
0.99961 1 1 0.99961
0.999471 1 1 0.999471
0.999517 1 1 0.999517
0.999621 1 1 0.999621
0.99972 1 1 0.99972
0.999853 1 1 0.999853
0.999991 1 1 0.999991
0.999992 1 1 0.999992
1 1 1 1
0.999992 1 1 0.999992
1 1 1 1
1 1 1 1
1 1 1 1
1 1 1 1
1 1 1 1
0.999999 1 1 0.999999
1 1 1 1
1 1 1 1
1 1 1 1
1 1 1 1
1 1 1 1
1 1 1 1
0.99936 1 1 0.99936
0.999238 1 1 0.999236
0.999379 1.00022 1 0.999157
0.999329 1.0002 1 0.999131
0.99966 1.00052 1 0.999144
0.99961 1.00042 1 0.999188
0.999307 1 1 0.999305
0.999768 1.00059 1 0.99918
0.999508 1.00028 1 0.999223
0.999441 1.00013 1 0.999313
0.999298 1.00018 1 0.999121
0.999119 1 1 0.999119
0.999258 1 1 0.999256
0.999551 1 1 0.999551
0.99941 1 1 0.99941
0.999219 1 1.00001 0.999214
1.00005 1.00058 1 0.999465
0.999348 1 1 0.999348
0.999521 1 1 0.999521
0.999473 1 1 0.999473
0.999494 1 1 0.999494
0.999985 1 1 0.999985
0.999811 1 1 0.999811
0.999628 1 1 0.999628
0.999329 1.00019 1 0.999142
0.999993 1 1 0.999993
0.999869 1 1 0.999869
0.999437 1.0003 1 0.999139
1.0004 1.00103 1 0.999376
0.9995 1 1 0.9995
0.999797 1 1.00054 0.999259
0.999758 1 1.0006 0.999161
1.00005 1.00059 1 0.999463
0.999837 1 1 0.999837
0.999659 1 1 0.999659
0.999499 1 1 0.999499
0.999466 1 1 0.999466
0.999393 1 1 0.999393
0.999526 1 1 0.999526
0.999836 1.00066 1 0.999175
1.00058 1.00136 1 0.999221
1.00149 1.00236 0.999601 0.99953
0.999271 1 1 0.999271
0.999823 1 1.00038 0.999447
1.00214 1 1.00301 0.999129
0.999877 1 1 0.999877
0.999857 1 1 0.999857
0.999761 1 1 0.999761
0.999666 1 1 0.999666
0.999561 1 1 0.999561
0.999426 1 1 0.999426
0.999334 1 1 0.999334
0.99947 1 1 0.99947
0.999624 1 1 0.999624
0.999516 1 1 0.999516
0.999367 1 1 0.999364
0.999451 1.00002 1 0.99943
0.999448 1 1 0.999448
0.999437 1 1 0.999437
0.999243 1 1 0.999243
0.999928 1 1.00076 0.999171
0.999547 1 1 0.999547
0.999345 1.00004 1 0.999308
0.999436 1 1 0.999436
0.999711 1 1.00039 0.999323
1.00044 1.00129 0.999742 0.999409
0.999876 1.00068 1 0.999194
1.00126 1 1.00215 0.999107
0.999462 1 1 0.999462
1.00745 1.00868 0.999433 0.999351
0.999377 1 1 0.999377
1.00094 1 1.00173 0.999209
0.998431 1.002 0.997225 0.999215
1.00102 1 1.00196 0.999062
1.00614 1.00896 0.997957 0.999245
0.999577 1 1 0.999577
0.999503 1 1 0.999503
0.999452 1 1 0.999452
0.999854 1 1 0.999854
0.9997 1 1 0.9997
0.999622 1 1 0.999622
0.999511 1 1 0.999511
0.999853 1 1 0.999853
0.999712 1 1 0.999712
0.999468 1 1 0.999468
0.99962 1 1 0.99962
0.999528 1 1 0.999528
0.99945 1 1 0.99945
0.999553 1 1 0.999553
0.999629 1 1 0.999629
0.999701 1 1 0.999701
0.99983 1 1 0.99983
0.999738 1 1 0.999738
0.99983 1 1 0.99983
0.999991 1 1 0.999991
0.999991 1 1 0.999991
1 1 1 1
0.999992 1 1 0.999992
1 1 1 1
1 1 1 1
1 1 1 1
1 1 1 1
1 1 1 1
1 1 1 1
0.999998 1 1 0.999998
1 1 1 1
1 1 1 1
1 1 1 1
1 1 1 1
1 1 1 1
1 1 1 1
0.999323 1 1 0.999319
0.999653 1.00047 1 0.999181
0.999678 1.00053 1 0.999149
0.999787 1.00061 1 0.999179
0.999606 1.00038 1 0.99923
0.999383 1.00006 1 0.999322
1.00027 1.00102 1 0.999249
1.00472 1.01005 0.99529 0.999428
1.00669 1.00758 0.9997 0.999419
0.999908 1 1 0.999908
0.999299 1.00015 1 0.999146
0.999506 1.00037 1 0.99914
1.00056 1.00121 1 0.999354
0.99951 1 1 0.99951
1.0004 1 1.00116 0.999238
0.999285 1 1.00012 0.999167
0.999735 1.00027 1 0.999461
0.999495 1 1 0.999495
0.999491 1 1 0.999491
0.999379 1 1 0.999379
0.999991 1 1 0.999991
0.999528 1 1 0.999528
0.99986 1 1 0.99986
0.999659 1 1 0.999659
0.99986 1 1 0.99986
0.999718 1.00055 1 0.99917
0.999888 1 1 0.999888
0.999857 1 1 0.999857
0.999743 1 1 0.999743
1.00082 1.0016 1 0.999225
1.00065 1.00168 0.999469 0.9995
0.999721 1 1.00027 0.999453
1.00235 1 1.00323 0.99912
0.999438 1 1.00016 0.999276
0.999678 1 1 0.999678
0.999555 1 1 0.999555
0.999458 1 1 0.999458