# vtk DataFile Version 2.0
Wound Healing Simulation
ASCII
DATASET UNSTRUCTURED_GRID
POINTS 3012 float
69.9759 18.75 4
67.2507 60.3285 4
69.976 18.75 2
73.0099 25.446 4
71.1327 20.9142 4
68.6801 16.6661 4
67.8247 19.9262 3.98062
67.2507 60.3286 2
71.1327 54.0858 4
68.6801 58.3339 4
65.6939 62.2254 4
65.3112 59.0007 3.97967
74.6784 42.3946 4
73.7221 47.2057 4
69.9759 18.75 0
73.0099 25.446 2
68.6801 16.6661 2
71.1327 20.9142 2
67.8253 19.9296 2
74.6792 32.6053 4
73.7222 27.7943 4
72.1454 23.1494 4
70.6134 26.2209 3.98022
68.8849 21.958 3.9811
67.2507 14.6715 4
66.6361 17.9724 3.97973
65.7941 21.0269 3.9701
67.2507 60.3285 0
71.1327 54.0858 2
68.6801 58.3339 2
65.694 62.2255 2
65.3125 58.9968 2
72.1454 51.8506 4
69.9759 56.25 4
68.8356 53.113 3.98028
64.0165 64.0165 4
66.6099 57.1334 3.98033
63.8843 60.765 3.97992
63.4974 57.7682 3.9712
60.3285 67.2507 4
74.6792 42.3947 2
73.7222 47.2057 2
74.9194 39.9526 4
74.2788 44.8158 4
72.1677 42.0855 3.97987
73.0099 49.554 4
71.2487 46.5979 3.97948
73.0099 25.446 0
71.1327 20.9142 0
68.6801 16.6661 0
67.8247 19.9262 0.019382
74.6792 32.6053 2
73.7222 27.7943 2
67.2508 14.6715 2
72.1455 23.1494 2
70.6134 26.2214 2
66.6371 17.9765 2
68.8852 21.9602 2
65.7935 21.0279 2
74.9197 35.0474 4
74.2794 30.1841 4
72.1844 32.9434 3.98014
71.2776 28.4314 3.97978
69.8148 24.0595 3.98084
68.3443 26.9522 3.96922
66.7598 22.9344 3.96965
65.694 12.7746 4
65.3224 16.1045 3.97931
64.7105 19.1978 3.97049
63.8793 22.0402 3.96651
71.1327 54.0858 0
65.6939 62.2254 0
68.6801 58.3339 0
65.3112 59.0007 0.0203295
72.1455 51.8506 2
69.9759 56.25 2
68.8358 53.111 2
64.0165 64.0165 2
66.6108 57.1297 2
63.886 60.7615 2
63.4969 57.7679 2
62.2254 65.694 4
58.8939 65.4139 3.98942
69.7682 50.9888 3.97999
67.7829 55.167 3.98012
66.6468 52.2079 3.96884
62.3351 62.4269 3.98404
64.658 56.0294 3.97049
62.199 59.3978 3.96957
61.8166 56.6737 3.96635
58.3339 68.6801 4
60.3285 67.2508 2
73.7221 47.2057 0
74.6784 42.3946 0
74.9197 39.9526 2
74.2794 44.8159 2
72.1672 42.0854 2
73.0099 49.554 2
71.2485 46.5977 2
75 37.5 4
72.405 39.8022 3.98047
71.782 44.3527 3.97987
69.8021 41.7894 3.96936
70.5744 48.8134 3.97959
68.9099 46.014 3.96895
74.6792 32.6053 0
73.7222 27.7943 0
67.2507 14.6715 0
72.1454 23.1494 0
70.6134 26.2209 0.0197839
68.8849 21.958 0.0188956
66.6361 17.9724 0.0202717
65.7941 21.0269 0.0298989
74.9197 35.0474 2
74.2794 30.1841 2
72.1838 32.9437 2
71.2774 28.4318 2
65.694 12.7745 2
65.3239 16.1088 2
69.8149 24.0607 2
68.3442 26.9528 2
64.7099 19.1987 2
66.7594 22.9353 2
63.8788 22.0407 2
72.4128 35.2242 3.98052
71.8034 30.6763 3.98018
69.838 33.2687 3.96955
68.9637 29.0387 3.96923
67.6087 24.9129 3.96934
66.1796 27.6385 3.96703
64.0165 10.9835 4
64.7459 23.8344 3.96672
63.8888 14.3285 3.9809
63.5096 17.452 3.97098
62.8997 20.327 3.96633
62.0536 22.9586 3.96681
60.683 11.0988 3.98542
57.6112 11.4534 3.97715
72.1454 51.8506 0
69.9759 56.25 0
68.8356 53.113 0.0197232
64.0165 64.0165 0
63.8843 60.765 0.0200809
66.6099 57.1334 0.0196722
63.4974 57.7682 0.028797
62.2255 65.694 2
58.8953 65.413 2
69.7681 50.9878 2
67.7833 55.164 2
66.6463 52.207 2
62.337 62.4243 2
64.6574 56.0288 2
62.1984 59.3982 2
61.816 56.6735 2
60.6678 63.9763 3.98652
57.0251 66.7346 3.99089
57.5565 63.6881 3.97915
67.5048 50.1755 3.96858
65.6989 54.1717 3.96933
64.5241 51.3797 3.96588
60.7706 60.9324 3.97356
62.8138 55.062 3.96658
60.6493 58.1476 3.96398
60.3175 55.7725 3.96564
56.25 69.9759 4
58.3339 68.6801 2
60.3285 67.2507 0
58.9205 9.65684 3.98718
62.2254 9.30607 4
73.0099 49.554 0
74.2788 44.8158 0
71.2487 46.5979 0.0205152
72.1677 42.0855 0.0201344
74.9194 39.9526 0
75 37.5 2
72.405 39.8023 2
71.7819 44.3524 2
69.8015 41.7891 2
70.5743 48.8131 2
68.9098 46.0134 2
72.4884 37.512 3.98007
70.0394 39.6572 3.96945
69.4282 43.907 3.96924
67.5823 41.4954 3.96828
68.2633 48.1061 3.96862
66.6886 45.4354 3.9675
74.9197 35.0474 0
74.2794 30.1841 0
72.1844 32.9434 0.0198645
71.2776 28.4314 0.0202223
65.694 12.7746 0
65.3224 16.1045 0.0206931
69.8148 24.0595 0.0191581
68.3443 26.9522 0.0307828
66.7598 22.9344 0.0303452
64.7105 19.1978 0.0295076
63.8793 22.0402 0.0334884
72.4128 35.2243 2
71.8034 30.6768 2
69.8375 33.2691 2
68.9637 29.0393 2
64.0165 10.9835 2
63.8908 14.3324 2
63.509 17.4529 2
67.6084 24.9137 2
66.1797 27.6389 2
62.899 20.3275 2
64.7455 23.8348 2
62.0531 22.959 2
60.6855 11.1014 2
57.6121 11.4517 2
70.0561 35.3921 3.96959
69.465 31.1499 3.96934
67.6436 33.5927 3.96805
66.7565 29.6262 3.96734
65.5102 25.7034 3.96682
64.0796 28.2692 3.96998
62.3407 12.656 3.98396
62.808 24.6523 3.96807
62.1954 15.7924 3.97141
61.8051 18.6946 3.96623
61.1846 21.3581 3.96531
60.3431 23.7548 3.9691
59.2443 12.7857 3.97442
55.8737 10.2385 3.97935
56.4029 13.1298 3.97368
69.7682 50.9888 0.0200063
62.2254 65.694 0
58.8939 65.4139 0.0105774
67.7829 55.167 0.0198787
66.6468 52.2079 0.0311619
62.3351 62.4269 0.0159576
62.199 59.3978 0.0304258
64.658 56.0294 0.0295141
61.8166 56.6737 0.0336506
60.6695 63.9747 2
57.0261 66.7342 2
57.5566 63.6898 2
67.5045 50.1747 2
65.6983 54.1709 2
64.524 51.3794 2
60.7704 60.9332 2
62.8131 55.0618 2
60.649 58.1478 2
60.317 55.7723 2
55.071 67.9315 3.99172
59.217 62.3606 3.97473
55.804 64.9076 3.98362
56.3241 62.0792 3.97508
65.3128 49.4025 3.96628
63.6983 53.2872 3.9657
62.3841 50.6344 3.96721
59.3272 59.546 3.96831
61.0588 54.2958 3.96585
59.2711 56.9938 3.96394
59.2248 55.1654 3.96521
48.1017 68.5773 3.98716
50.9488 69.9312 3.99185
54.0858 71.1327 4
56.25 69.976 2
58.3339 68.6801 0
57.058 8.33663 3.98849
60.3285 7.74928 4
58.9228 9.65839 2
62.2255 9.30602 2
70.5744 48.8134 0.0204067
71.782 44.3527 0.0201271
68.9099 46.014 0.0310498
69.8021 41.7894 0.030641
72.405 39.8022 0.0195278
75 37.5 0
72.4879 37.5122 2
70.0393 39.6571 2
69.4281 43.9066 2
67.5822 41.4953 2
68.2632 48.1054 2
66.6882 45.435 2
70.1274 37.5216 3.96947
67.8224 39.5113 3.96834
67.2045 43.4666 3.96791
65.4805 41.2026 3.97232
66.0469 47.4126 3.96691
64.5696 44.8347 3.97055
72.4128 35.2242 0.0194826
71.8034 30.6763 0.0198165
69.838 33.2687 0.0304524
68.9637 29.0387 0.0307691
64.0165 10.9835 0
63.8888 14.3285 0.019101
63.5096 17.452 0.0290229
67.6087 24.9129 0.0306597
66.1796 27.6385 0.0329738
64.7459 23.8344 0.0332779
62.8997 20.327 0.0336688
62.0536 22.9586 0.0331879
60.683 11.0988 0.01458
57.6112 11.4534 0.0228522
70.0561 35.3923 2
69.4649 31.1504 2
67.6437 33.5928 2
66.7567 29.6265 2
62.343 12.6595 2
62.1949 15.7926 2
61.8044 18.695 2
65.51 25.7039 2
64.0784 28.2697 2
61.1836 21.3585 2
62.8074 24.6528 2
60.3429 23.7555 2
59.2453 12.7854 2
56.4035 13.1279 2
55.8743 10.2371 2
67.8607 35.5484 3.96831
67.2514 31.625 3.96774
65.634 33.9326 3.97237
64.5934 30.2037 3.97082
63.4813 26.4287 3.96913
62.1372 28.8006 3.97397
60.7731 14.23 3.97388
60.9501 25.3643 3.9711
60.6033 17.1416 3.96608
60.1951 19.8348 3.96371
59.5831 22.2876 3.96597
58.8607 24.3573 3.9716
54.037 9.13948 3.98134
57.9066 14.3462 3.97404
54.7848 12.0222 3.97469
55.3072 14.6693 3.97203
67.5048 50.1755 0.0314197
57.0251 66.7346 0.00910968
60.6678 63.9763 0.0134827
57.5565 63.6881 0.0208548
65.6989 54.1717 0.0306702
64.5241 51.3797 0.0341218
60.7706 60.9324 0.0264386
60.6493 58.1476 0.0360211
62.8138 55.062 0.0334154
60.3175 55.7725 0.0343633
55.0717 67.9314 2
59.2172 62.3619 2
55.8039 64.9087 2
56.3236 62.0815 2
65.3126 49.4021 2
63.698 53.287 2
62.384 50.6341 2
59.3266 59.5474 2
61.0592 54.2956 2
59.2715 56.9934 2
59.2252 55.165 2
53.043 68.9993 3.99175
53.9664 66.0114 3.98518
57.8765 60.8584 3.97413
54.6826 63.2023 3.97828
55.2063 60.5983 3.97378
63.1242 48.6435 3.96837
61.7025 52.5592 3.9664
60.1632 49.9892 3.96907
58.0046 58.2451 3.96544
59.2878 53.9255 3.967
58.0874 55.7888 3.96134
50.1084 67.8557 3.98686
47.4625 66.5776 3.98361
46.0553 69.1563 3.98735
48.1017 68.578 2
48.8028 70.7224 3.99196
50.9492 69.9312 2
51.8506 72.1454 4
54.0858 71.1327 2
56.25 69.9759 0
55.1028 7.14095 3.9902
58.3339 6.31992 4
57.0598 8.33743 2
60.3286 7.74926 2
58.9205 9.65684 0.0128234
62.2254 9.30607 0
68.2633 48.1061 0.0313794
69.4282 43.907 0.0307596
66.6886 45.4354 0.0324967
67.5823 41.4954 0.0317175
70.0394 39.6572 0.0305518
72.4884 37.512 0.0199332
70.1269 37.5216 2
67.8222 39.5112 2
67.2052 43.4663 2
65.4794 41.2024 2
66.047 47.4122 2
64.5683 44.8342 2
67.9212 37.522 3.96836
65.718 39.3664 3.97253
65.0992 43.0149 3.97182
63.6217 40.9177 3.97684
63.8843 46.7004 3.96938
62.666 44.1944 3.97455
70.0561 35.3921 0.0304105
69.465 31.1499 0.0306571
67.6436 33.5927 0.0319546
66.7565 29.6262 0.0326648
62.3407 12.656 0.0160407
62.1954 15.7924 0.0285949
61.8051 18.6946 0.0337674
65.5102 25.7034 0.033179
64.0796 28.2692 0.0300155
62.808 24.6523 0.0319331
61.1846 21.3581 0.0346914
60.3431 23.7548 0.030897
59.2443 12.7857 0.0255791
56.4029 13.1298 0.026324
55.8737 10.2385 0.0206522
67.8604 35.5485 2
67.2518 31.6253 2
65.633 33.9329 2
64.5924 30.2041 2
60.7732 14.2307 2
60.6028 17.1416 2
60.1961 19.8348 2
63.4805 26.4292 2
62.1352 28.8012 2
59.5846 22.2881 2
60.9494 25.365 2
58.8598 24.3584 2
57.9066 14.3453 2
55.3076 14.6687 2
54.0375 9.13807 2
54.7854 12.0199 2
65.8096 35.6693 3.97246
65.1139 32.1632 3.97136
64.1755 34.2575 3.97675
62.4526 30.6563 3.97491
61.5421 27.0975 3.97233
60.6911 29.1701 3.9773
59.3048 15.6819 3.9701
59.1884 25.8342 3.97448
59.1049 18.3759 3.96432
58.6808 20.8835 3.96291
58.1692 23.1321 3.96659
57.8294 24.709 3.97366
52.1119 8.15602 3.98393
53.0569 11.0257 3.97666
56.6689 15.7628 3.97268
53.8056 13.7007 3.97438
54.3661 16.0257 3.97371
55.071 67.9315 0.00828447
65.3128 49.4025 0.0337172
55.804 64.9076 0.016379
59.217 62.3606 0.0252688
56.3241 62.0792 0.0249194
63.6983 53.2872 0.0342979
62.3841 50.6344 0.0327948
59.3272 59.546 0.0316888
59.2711 56.9938 0.0360625
61.0588 54.2958 0.0341549
59.2248 55.1654 0.0347941
53.0435 68.9993 2
53.9663 66.0123 2
57.8757 60.8599 2
54.682 63.2031 2
55.206 60.6001 2
63.1235 48.6431 2
61.7034 52.5591 2
60.163 49.9886 2
58.0041 58.2465 2
59.2897 53.9252 2
58.0858 55.7877 2
52.0697 66.9985 3.98651
52.9527 64.2145 3.98168
56.6399 59.4736 3.97299
53.6776 61.6132 3.97607
[...]
POINT_DATA 3012
SCALARS Jp_lamdaP float 4
LOOKUP_TABLE default
0.999857 1 1 0.999857
1 1 1 1
0.999862 1 1 0.999862
0.999815 1 1 0.999815
0.999856 1 1 0.999856
0.999852 1 1 0.999852
0.99933 1 1 0.99933
1 1 1 1
1 1 1 1
1 1 1 1
0.99993 1 1 0.99993
0.99949 1 1 0.99949
0.999778 1 1 0.999778
0.999806 1 1 0.999806
0.999862 1 1 0.999862
0.99983 1 1 0.99983
0.999857 1 1 0.999857
0.999865 1 1 0.999865
0.999333 1 1 0.999333
1 1 1 1
0.999795 1 1 0.999795
0.999839 1 1 0.999839
0.999201 1 1 0.999201
0.999299 1 1 0.999299
0.999872 1 1 0.999872
0.999364 1 1 0.999364
0.99874 1.00024 1 0.998497
1 1 1 1
0.999917 1 1 0.999917
0.999931 1 1 0.999931
1 1 1 1
0.999498 1 1 0.999498
0.99983 1 1 0.99983
0.999853 1 1 0.999853
0.999415 1 1 0.999415
1 1 1 1
0.999504 1 1 0.999504
0.999587 1 1 0.999587
0.998541 1 1 0.998541
1 1 1 1
1 1 1 1
0.999901 1 1 0.999901
1 1 1 1
0.999798 1 1 0.999798
0.99913 1 1 0.99913
1 1 1 1
0.999321 1 1 0.999321
0.999843 1 1 0.999843
0.99987 1 1 0.99987
0.999858 1 1 0.999858
0.999339 1 1 0.999339
0.999886 1 1 0.999886
0.99981 1 1 0.99981
0.999882 1 1 0.999882
0.999852 1 1 0.999852
0.999201 1 1 0.999201
0.999368 1 1 0.999368
0.999302 1 1 0.999302
0.998878 1.0004 1 0.998482
1 1 1 1
0.999783 1 1 0.999783
0.999296 1 1 0.999296
0.999166 1 1 0.999166
0.999251 1 1 0.999251
1.00035 1.00216 1 0.998199
0.999109 1.00078 1 0.998333
0.999927 1 1 0.999927
0.999478 1 1 0.999478
0.998623 1.00002 1 0.998602
1.0045 1.00675 1 0.997761
1 1 1 1
1 1 1 1
1 1 1 1
0.999506 1 1 0.999506
1 1 1 1
1 1 1 1
0.999335 1 1 0.999335
0.999984 1 1 0.999984
0.999443 1 1 0.999443
0.99964 1 1 0.99964
0.998538 1 1 0.998538
1 1 1 1
0.999951 1 1 0.999951
0.999275 1 1 0.999275
0.999372 1 1 0.999372
1.00011 1.00199 1 0.998121
0.999781 1 1 0.999781
0.998531 1.00009 1 0.99844
0.998677 1 1 0.998677
0.998376 1.00038 1 0.997993
1 1 1 1
1 1 1 1
1 1 1 1
1 1 1 1
1 1 1 1
0.999896 1 1 0.999896
0.999208 1 1 0.999208
0.999906 1 1 0.999906
0.999276 1 1 0.999276
1 1 1 1
0.999117 1 1 0.999117
0.999294 1 1 0.999294
1.00016 1.00234 1 0.997827
0.999356 1 1 0.999356
1.00142 1.00352 1 0.997913
0.999796 1 1 0.999796
0.999824 1 1 0.999824
0.999891 1 1 0.999891
0.999863 1 1 0.999863
0.999203 1 1 0.999203
0.999306 1 1 0.999306
0.999374 1 1 0.999374
0.999007 1.00054 1 0.998467
1 1 1 1
0.999798 1 1 0.999798
0.999142 1 1 0.999142
0.999164 1 1 0.999164
0.999963 1 1 0.999963
0.999532 1 1 0.999532
0.999253 1 1 0.999253
1.00033 1.00218 1 0.998159
0.998646 1.00006 1 0.998584
0.999275 1.00092 1 0.998362
1.00481 1.00706 1 0.997765
0.999139 1 1 0.999139
0.999143 1 1 0.999143
0.999786 1.0018 1 0.997991
1.00041 1.00233 1 0.998083
1 1.00179 1 0.998216
1.01126 1.01374 1 0.997555
1 1 1 1
1.00648 1.00881 1 0.99769
0.999702 1 1 0.999702
0.998639 1 1 0.998639
1.00303 1.00522 1 0.99783
1.01479 1.01731 1 0.997519
0.99987 1 1 0.99987
0.999531 1 1.00035 0.999179
1 1 1 1
1 1 1 1
0.999342 1 1 0.999342
1 1 1 1
0.99964 1 1 0.99964
0.999448 1 1 0.999448
0.998535 1 1 0.998535
1 1 1 1
0.999965 1 1 0.999965
0.999333 1 1 0.999333
0.999426 1 1 0.999426
0.999747 1.00163 1 0.998123
0.999794 1 1 0.999794
0.998478 1.00004 1 0.998443
0.998676 1 1 0.998676
0.99842 1.00044 1 0.997977
0.999882 1 1 0.999882
0.99999 1 1 0.99999
0.999413 1 1.00005 0.999366
1.00103 1.00303 1 0.99801
0.99905 1.00077 1 0.998284
1.00798 1.01045 1 0.997555
0.998894 1 1 0.998894
1.00114 1.00326 1 0.997884
0.998899 1.00024 1.00057 0.998085
1.00086 1.00305 1 0.997815
1 1 1 1
1 1 1 1
1 1 1 1
0.999922 1 1 0.999922
1 1 1 1
1 1 1 1
1 1 1 1
0.999228 1 1 0.999228
0.999156 1 1 0.999156
1 1 1 1
1 1 1 1
0.999118 1 1 0.999118
0.999248 1 1 0.999248
1.00038 1.00256 1 0.997827
0.999257 1 1 0.999257
1.00145 1.00355 1 0.997913
0.999109 1 1 0.999109
0.999551 1.00178 1 0.997777
1.00087 1.00299 1 0.99788
1.01441 1.0171 1 0.997354
1.00146 1.00352 1 0.997947
1.01482 1.01744 1 0.997425
1 1 1 1
0.999813 1 1 0.999813
0.998976 1 1 0.998976
0.999164 1 1 0.999164
1 1 1 1
0.999586 1 1 0.999586
0.999257 1 1 0.999257
1.00031 1.00219 1 0.998119
0.999444 1.00106 1 0.99839
0.998674 1.00011 1 0.998565
1.00511 1.00735 1 0.997769
0.999136 1 1 0.999136
0.999141 1 1 0.999141
0.999652 1.00176 1 0.997899
1.00044 1.00233 1 0.998112
1 1 1 1
0.999698 1 1 0.999698
0.99869 1 1 0.99869
0.999973 1.00176 1 0.998215
1.01116 1.01368 1 0.997518
1.00306 1.00525 1 0.997819
1.0068 1.0091 1 0.99772
1.0143 1.01682 1 0.997525
0.99986 1 1 0.99986
0.999529 1 1.00035 0.999181
0.999282 1.00149 1 0.997798
1.0002 1.00216 1 0.998042
1.01232 1.01491 1 0.997452
1.01175 1.01435 1 0.997441
1.00862 1.011 1 0.997649
1.02256 1.02519 1 0.997435
0.999798 1 1 0.999798
1.01669 1.01923 1 0.997506
0.998867 1 1.00007 0.998802
0.9998 1.00184 1 0.997959
1.01247 1.01494 1 0.997562
1.01819 1.02071 1 0.997531
0.99925 1 1.00021 0.999036
0.999379 1 1.00001 0.999366
1.00005 1 1.00141 0.998637
0.999295 1 1 0.999295
1 1 1 1
0.999978 1 1 0.999978
0.9994 1 1 0.9994
0.999369 1.00125 1 0.998126
0.999803 1 1 0.999803
0.998716 1 1.00004 0.998675
0.998446 1 1 0.998446
0.998501 1.00054 1 0.997961
0.999901 1 1 0.999901
0.999993 1 1 0.999993
0.999526 1 1.00016 0.999369
1.00077 1.00276 1 0.99801
0.998813 1.00053 1 0.998288
1.00773 1.0102 1 0.997553
0.998917 1 1.00002 0.998897
1.00061 1.00272 1 0.997895
0.998931 1.00038 1.00047 0.998081
1.00101 1.00321 1 0.9978
1 1 1 1
0.999201 1 1.00008 0.999121
0.999692 1 1.00009 0.999603
0.999584 1 1.00076 0.99882
1.01106 1.01363 1 0.997469
1.00487 1.00717 1 0.997725
1.0173 1.01999 1 0.997363
0.998772 1 1.00044 0.998335
1.00572 1.00804 1 0.997704
1.00257 1.00323 1.00158 0.997772
1.00791 1.01026 1 0.997669
0.999861 1 1 0.999861
1 1 1 1
1 1 1 1
1 1 1 1
1 1 1 1
0.99996 1 1 0.99996
1 1 1 1
0.999911 1 1 0.999911
1 1 1 1
0.999258 1 1 0.999258
0.999196 1 1 0.999196
1.00155 1.00364 1 0.997913
1.00059 1.00277 1 0.997827
0.99912 1 1 0.99912
1 1 1 1
0.999108 1 1 0.999108
0.999702 1.00193 1 0.997778
1.00106 1.00319 1 0.997879
1.01422 1.01692 1 0.997353
1.0014 1.00346 1 0.997946
1.0148 1.01742 1 0.997424
0.999203 1.00144 1 0.99777
1.01346 1.0162 1 0.997309
1.01501 1.01765 1 0.997397
1.02813 1.03083 1 0.99738
1.01381 1.01641 1 0.997441
1.02695 1.02963 1 0.997397
0.999133 1 1 0.999133
0.999139 1 1 0.999139
0.999527 1.00172 1 0.997808
1.00047 1.00234 1 0.99814
1 1 1 1
0.999694 1 1 0.999694
0.99874 1 1 0.99874
0.999944 1.00173 1 0.998214
1.01107 1.01363 1 0.99748
1.0071 1.00937 1 0.997751
1.00306 1.00526 1 0.997807
1.01392 1.01643 1 0.997531
0.99985 1 1 0.99985
0.999562 1 1.00038 0.999182
0.99923 1.00146 1 0.997773
1.00016 1.00213 1 0.998039
1.01254 1.01513 1 0.997449
1.01191 1.01446 1 0.997477
0.999787 1 1 0.999787
0.998799 1 1 0.998799
1.00025 1.00226 1 0.997993
1.00885 1.01123 1 0.997646
1.02288 1.0255 1 0.997445
1.01179 1.0143 1 0.997528
1.01654 1.01908 1 0.99751
1.01852 1.02104 1 0.997531
0.99919 1 1.00015 0.999038
1.00006 1 1.00142 0.998638
0.999577 1 1.00021 0.999363
1.01254 1.01518 1 0.997397
1.01277 1.01533 1 0.997477
1.02631 1.02902 1 0.997369
1.02475 1.02744 1 0.99739
1.0187 1.02126 1 0.99749
1.02458 1.02706 1 0.997589
0.99894 1 1 0.99894
1.02016 1.02265 1 0.997567
0.998597 1.00033 1 0.998271
1.00445 1.0069 1 0.997563
1.01571 1.01835 1 0.9974
1.0175 1.01987 1 0.99768
0.999526 1 1 0.999526
0.99865 1 1.00004 0.998608
1.00058 1 1.00186 0.998726
0.999471 1 1.00101 0.998465
1.00052 1.00252 1 0.99801
0.999997 1 1 0.999997
0.999919 1 1 0.999919
0.999541 1 1.00017 0.999371
0.99856 1.00027 1 0.998293
1.00747 1.00994 1 0.99755
0.9989 1 1 0.9989
0.998901 1.0005 1.00033 0.998076
1.00005 1.00215 1 0.997905
1.001 1.00322 1 0.997786
1 1 1 1
0.999206 1 1.00009 0.999121
0.999634 1 1.00002 0.999611
0.999719 1 1.0009 0.998816
1.01089 1.01346 1 0.997466
1.00398 1.00627 1 0.997726
1.01732 1.02001 1 0.997361
0.99879 1 1.00045 0.99834
1.0057 1.008 1 0.997718
1.00253 1.00305 1.00173 0.99776
1.00793 1.01022 1 0.997735
1 1 1 1
0.999748 1 1 0.999748
0.998863 1 1.00026 0.998604
0.999616 1 1.00056 0.999054
0.999725 1 1.00119 0.998541
1.02063 1.02335 1 0.997339
1.0117 1.01422 1 0.997515
1.01714 1.01981 1 0.99738
1.00085 1.00088 1.00199 0.997974
1.00869 1.01108 1 0.997635
1.00589 1.00755 1.00086 0.99749
0.999844 1 1 0.999844
0.999473 1 1 0.999473
0.999873 1 1 0.999873
0.999864 1 1 0.999864
1 1 1 1
1 1 1 1
1 1 1 1
1 1 1 1
1 1 1 1
0.999987 1 1 0.999987
1 1 1 1
0.99995 1 1 0.99995
1 1 1 1
0.9999 1 1 0.9999
1 1 1 1
1.0013 1.00336 1 0.997945
1.00121 1.00334 1 0.997879
1.01464 1.01726 1 0.997423
1.01402 1.01671 1 0.997352
0.999895 1.00212 1 0.997778
0.999108 1 1 0.999108
0.9993 1.00153 1 0.997769
1.01342 1.01616 1 0.997309
1.01469 1.01734 1 0.997396
1.0284 1.03109 1 0.997391
1.01344 1.01604 1 0.997438
1.02643 1.02911 1 0.997396
1.01296 1.0157 1 0.997299
1.02723 1.02994 1 0.997372
1.02846 1.03115 1 0.997393
1.03239 1.03506 0.999877 0.997539
1.02311 1.02581 1 0.997374
1.02756 1.03002 1 0.997621
0.999204 1.00146 1 0.997748
1.00013 1.0021 1 0.998037
1.01275 1.01534 1 0.997446
1.01205 1.01458 1 0.997514
0.999777 1 1 0.999777
0.998796 1 1 0.998796
1.00069 1.00267 1 0.998027
1.00911 1.01149 1 0.997644
1.02321 1.02582 1 0.997456
1.0164 1.01894 1 0.997513
1.01101 1.01355 1 0.997494
1.01883 1.02135 1 0.997531
0.999131 1 1.00009 0.999041
1.00004 1 1.0014 0.99864
0.99974 1 1.00038 0.99936
1.01266 1.01534 1 0.997362
1.01286 1.01543 1 0.997475
1.02592 1.02861 1 0.997382
1.02502 1.0277 1 0.997392
0.998971 1 1.00003 0.998938
0.998967 1.0007 1 0.998264
1.00402 1.00639 1.00003 0.997614
1.01886 1.02143 1 0.997488
1.02404 1.02648 1 0.997624
1.01574 1.01842 1 0.997368
1.0202 1.02268 1 0.99757
1.01706 1.0194 1 0.997705
0.998744 1 1.00013 0.998611
0.999451 1 1.00101 0.998447
0.999521 1 1 0.999521
1.00057 1 1.00182 0.998752
1.02618 1.02892 1 0.997336
1.02687 1.02955 1 0.9974
1.02887 1.03149 1 0.997463
1.02657 1.02917 0.99986 0.997609
1.02192 1.02436 1 0.997617
1.02316 1.02544 1 0.997772
0.998505 1 1 0.998505
1.01758 1.01981 1 0.997816
0.998781 1.00088 1 0.997903
1.00844 1.01097 1.00018 0.997327
1.01732 1.02003 1 0.997335
1.01613 1.01843 1 0.99774
0.999633 1 1 0.999633
0.999318 1 1.00041 0.998909
0.99843 1 1 0.99843
1.00084 1 1.00233 0.998506
0.998957 1 1.00054 0.998419
1 1 1 1
1.01065 1.01322 1 0.997462
0.999618 1 1 0.999618
0.999267 1 1.00014 0.999122
0.999961 1 1.00115 0.998811
1.00315 1.00543 1 0.997727
1.0174 1.02009 1 0.99736
0.998851 1 1.00051 0.998345
1.00277 1.00309 1.00193 0.997749
1.00578 1.00807 1 0.997732
1.00815 1.01037 1 0.997802
1 1 1 1
0.999755 1 1 0.999755
0.998897 1 1.00029 0.998605
0.999719 1 1.00067 0.999054
1.00012 1 1.0016 0.99852
1.02087 1.0236 1 0.997334
1.01197 1.01449 1 0.997514
1.01709 1.01977 1 0.99737
1.00065 1.00055 1.00213 0.997979
1.01103 1.01342 1 0.997646
1.00509 1.00663 1.00096 0.997509
0.999813 1 1 0.999813
0.999261 1 1 0.999261
0.998771 1 1.00048 0.998295
1.00072 1 1.002 0.998722
0.999755 1 1.00135 0.998404
1.02087 1.02352 1 0.997418
1.01276 1.01532 1 0.997483
1.0152 1.0177 1 0.997546
1.00153 1 1.00379 0.997743
1.00589 1.00854 1 0.997371
0.999847 1 1 0.999847
0.999407 1 1 0.999407
0.999452 1 1 0.999452
0.999243 1 1 0.999243
0.999482 1 1 0.999482
0.999877 1 1 0.999877
0.999874 1 1 0.999874
1 1 1 1
0.999866 1 1 0.999866
1 1 1 1
1 1 1 1
1 1 1 1
1 1 1 1
1 1 1 1
0.999998 1 1 0.999998
0.99998 1 1 0.99998
1 1 1 1
1 1 1 1
0.99994 1 1 0.99994
1 1 1 1
1.01314 1.01575 1 0.997436
1.01452 1.01717 1 0.997395
1.026 1.02868 1 0.997394
1.02873 1.0314 1 0.997403
1.01334 1.01608 1 0.997309
0.999349 1.00158 1 0.997769
1.01283 1.01557 1 0.9973
1.02718 1.02989 1 0.997365
1.02843 1.03112 1 0.997393
1.03149 1.03438 0.999641 0.997566
1.02362 1.02632 1 0.997369
1.02778 1.03026 0.999961 0.997639
1.02631 1.02905 1 0.997339
1.03033 1.03359 0.999335 0.997503
1.03048 1.03297 0.999957 0.997629
1.03046 1.03406 0.998831 0.997687
1.0248 1.02733 1 0.99754
1.02797 1.03048 0.999745 0.997814
1.01275 1.01547 1 0.997326
1.01294 1.01551 1 0.997474
1.02552 1.0282 1 0.997396
1.02527 1.02795 1 0.997394
0.998938 1 1 0.998937
0.999383 1.00113 1 0.998258
1.0038 1.00597 1.00018 0.997664
1.01902 1.02159 1 0.997486
1.02344 1.02584 1 0.997659
1.02023 1.02271 1 0.997573
1.01582 1.01854 1 0.997337
1.01655 1.01886 1 0.997729
0.998855 1 1.00024 0.998613
0.999404 1 1.00098 0.998429
0.999516 1 1 0.999516
1.00037 1 1.00159 0.998778
1.02604 1.02878 1 0.997337
1.0264 1.02909 1 0.997385
1.02879 1.03139 0.999994 0.997485
1.02634 1.02887 0.999947 0.997593
0.9985 1 1 0.9985
0.998999 1.00102 1.00003 0.997948
1.00864 1.01096 1.00039 0.997319
1.02163 1.0241 1 0.997587
1.02307 1.02531 0.99999 0.997824
1.01662 1.01935 1 0.997323
1.01784 1.02007 1 0.997819
1.01743 1.01969 1 0.997783
0.998428 1 1 0.998428
0.998687 1 1.00026 0.998422
1.00138 1 1.00289 0.9985
0.9996 1 1 0.9996
0.999213 1 1.00028 0.998934
1.02924 1.03266 0.999206 0.997484
1.02981 1.03256 0.999801 0.997536
1.02417 1.02741 0.999036 0.997804
1.02041 1.02264 0.999972 0.997848
0.998279 1 1 0.998279
1.02065 1.02272 1 0.997971
0.998686 1.00073 1.00029 0.997674
1.00933 1.01176 1.00051 0.997095
1.01577 1.01851 1 0.997305
0.999668 1 1 0.999668
0.99914 1 1 0.99914
0.999818 1 1.00113 0.998689
0.998386 1 1 0.998386
1.0017 1 1.00338 0.998326
0.998356 1 1 0.998356
1 1 1 1
0.999762 1 1 0.999762
1.02115 1.02389 1 0.997328
0.999789 1 1.00074 0.999054
0.998857 1 1.00025 0.998607
1.00065 1 1.00216 0.998498
1.01205 1.01457 1 0.997513
1.01688 1.01957 1 0.997361
1.00041 1.00014 1.00229 0.997983
1.00382 1.00552 1.00077 0.997528
1.01313 1.01551 1 0.997657
0.999818 1 1 0.999818
0.999264 1 1 0.999264
0.998713 1 1.00041 0.9983
1.00111 1 1.00239 0.998718
0.999867 1 1.00147 0.998396
1.0208 1.02345 1 0.997412
1.01326 1.01583 1 0.997473
1.01503 1.0175 1 0.997571
1.00114 1.00019 1.00324 0.997712
1.00488 1.0075 1.00006 0.997341
0.999384 1 1 0.999384
0.999967 1 1.00109 0.998883
1.00013 1 1.002 0.998133
1.00142 1 1.00297 0.998454
0.999282 1 1.001 0.998289
1.0216 1.02384 1 0.997814
1.01123 1.01387 1 0.997395
1.01213 1.01457 1 0.997596
1.00346 1.00159 1.00433 0.997546
1.00078 1.00364 1 0.997144
0.99985 1 1 0.99985
0.999424 1 1 0.999424
0.999155 1 1 0.999155
0.999431 1 1 0.999431
0.999482 1 1 0.999482
0.999213 1 1 0.999213
0.999068 1 1 0.999068
0.999186 1 1 0.999186
0.999486 1 1 0.999486
0.999874 1 1 0.999874
0.999877 1 1 0.999877
1 1 1 1
0.999876 1 1 0.999876
1 1 1 1
1 1 1 1
1 1 1 1
1 1 1 1
1 1 1 1
1 1 1 1
0.999996 1 1 0.999996
1 1 1 1
0.999973 1 1 0.999973
1 1 1 1
1 1 1 1
1.02407 1.02678 1 0.997363
1.02828 1.03097 1 0.997393
1.02799 1.0305 0.999906 0.997656
1.03054 1.03367 0.999377 0.997594
1.02712 1.02984 1 0.997359
1.01276 1.0155 1 0.9973
1.02657 1.02932 1 0.997323
1.03059 1.03369 0.999504 0.997494
1.03017 1.03267 0.999971 0.997608
1.02996 1.03382 0.998562 0.997701
1.02416 1.02669 1 0.99754
1.02723 1.02975 0.999703 0.997854
1.02987 1.03282 0.999682 0.997467
1.03053 1.03587 0.997163 0.997678
1.0292 1.03301 0.998498 0.997805
1.02521 1.02761 0.999756 0.997909
1.02591 1.02865 1 0.997337
1.02594 1.02865 1 0.99737
1.02872 1.03129 0.999999 0.997507
1.02614 1.02863 1 0.997576
0.998494 1 1 0.998494
0.998952 1.00096 1 0.997994
1.00874 1.01087 1.00058 0.997311
1.02129 1.02379 1 0.997557
1.02302 1.02521 0.999988 0.997875
1.01817 1.02039 1 0.997821
1.01599 1.01873 1 0.99731
1.01865 1.02087 1 0.997826
0.998426 1 1 0.998426
0.998426 1 1 0.998426
1.00239 1 1.0039 0.998494
0.999566 1 1 0.999566
0.999229 1 1.00027 0.998958
1.02964 1.03274 0.99951 0.997487
1.03003 1.03273 0.999842 0.997538
1.02405 1.02709 0.999247 0.997793
0.998432 1.00016 1 0.998272
0.99983 1.00186 1.00026 0.997717
1.00898 1.01116 1.00076 0.997084
1.02104 1.02328 0.999978 0.997837
1.01548 1.01815 1 0.997378
1.0192 1.02135 0.999946 0.997951
0.999681 1 1 0.999681
0.998388 1.00001 1 0.998379
0.998426 1 1 0.998426
1.00156 1 1.00325 0.998312
0.999814 1 1.00112 0.998699
0.999114 1 1 0.999114
1.03014 1.0347 0.998017 0.997568
1.02798 1.03389 0.996557 0.997715
1.02114 1.02585 0.99751 0.997891
1.0254 1.02825 0.999185 0.998035
0.998519 1.00039 1 0.998128
1.01659 1.01898 1 0.997655
1.00184 1.00294 1.00165 0.997258
1.00595 1.00798 1.00104 0.996949
0.999779 1 1 0.999779
0.999285 1 1 0.999285
0.998856 1 1 0.998856
1.00192 1 1.00352 0.998405
0.998288 1 1 0.998288
1.00015 1 1.00194 0.998208
0.999822 1 1 0.999822
0.999268 1 1 0.999268
1.02088 1.02353 1 0.997406
1.00113 1 1.00242 0.998715
0.998575 1 1.00027 0.998306
0.999868 1 1.00148 0.998389
1.01403 1.01661 1 0.997464
1.01508 1.01753 1 0.997596
1.00085 1.00044 1.00273 0.997682
1.00397 1.00641 1.00027 0.997311
0.999387 1 1 0.999387
0.999588 1 1.0007 0.998892
1.00013 1 1.00198 0.99815
1.00166 1 1.0032 0.998459
0.99883 1 1.00048 0.998355
1.02193 1.02414 0.999998 0.997846
1.01065 1.01328 1 0.997399
1.01353 1.0159 1 0.997671
1.003 1.00091 1.00458 0.997513
1.0015 1.00438 1.00003 0.997097
0.999084 1 1 0.999084
1.00056 1 1.002 0.998563
1.00196 1.0002 1.00378 0.997983
0.999724 1 1.00155 0.998173
1.02471 1.0321 0.99477 0.998054
1.01708 1.01933 0.999872 0.997923
1.00638 1.00921 1 0.9972
1.00329 1.00188 1.00426 0.997158
0.999441 1 1 0.999441
0.999168 1 1 0.999168
0.999025 1 1 0.999025
0.999481 1 1 0.999481
0.999183 1 1 0.999183
0.999485 1 1 0.999485
0.999051 1 1 0.999051
0.999199 1 1 0.999199
0.998956 1 1 0.998956
0.999019 1 1 0.999019
0.999171 1 1 0.999171
0.999473 1 1 0.999473
0.999867 1 1 0.999867
0.999873 1 1 0.999873
1 1 1 1
0.999877 1 1 0.999877
1 1 1 1
1 1 1 1
1 1 1 1
1 1 1 1
1 1 1 1
1 1 1 1
1 1 1 1
1 1 1 1
0.999993 1 1 0.999993
1 1 1 1
1 1 1 1
1.02345 1.02598 1 0.99754
1.02991 1.0324 1 0.997588
1.02653 1.02902 0.999681 0.997893
1.02947 1.03356 0.998324 0.997715
1.03086 1.03378 0.999695 0.997486
1.02683 1.02961 1 0.997308
1.02956 1.03278 0.999406 0.997472
1.02986 1.035 0.997356 0.997668
1.02887 1.03281 0.998377 0.997805
1.02675 1.02909 0.999814 0.997912
1.03012 1.03541 0.997267 0.997618
1.02999 1.03761 0.994802 0.997847
1.03002 1.0349 0.99733 0.997944
1.03002 1.03282 0.999801 0.99749
1.03024 1.03288 0.999909 0.99754
1.02392 1.02671 0.999497 0.997783
0.998686 1.00042 1 0.998265
1.00101 1.00308 1.00018 0.997759
1.00838 1.01049 1.00085 0.997073
1.02165 1.02389 0.99998 0.997826
1.01789 1.02009 0.999917 0.99793
1.01549 1.01809 1 0.997451
0.998447 1.00008 1 0.998371
0.998496 1 1 0.998496
1.00128 1 1.00299 0.998298
0.999694 1 1 0.999694
0.99941 1 1.0007 0.99871
0.999087 1 1 0.999087
1.03089 1.03505 0.998394 0.997574
1.02844 1.0341 0.996793 0.997723
1.02138 1.02564 0.997965 0.997883
0.998888 1.00077 1 0.998117
1.00153 1.0028 1.0014 0.997343
1.00526 1.00739 1.0009 0.996988
1.02528 1.02792 0.999383 0.998045
1.01719 1.01964 0.999959 0.997642
0.999817 1 1 0.999817
0.999285 1 1 0.999285
0.998315 1 1 0.998315
1.00098 1 1.0027 0.998283
1.00183 1 1.00341 0.998424
0.998833 1 1 0.998833
1.02966 1.03673 0.995404 0.997765
1.02084 1.03087 0.992394 0.997855
1.02196 1.02747 0.996554 0.99808
1.01991 1.02322 0.998689 0.998071
0.99951 1.00074 1.00088 0.997886
1.00516 1.00669 1.0014 0.997085
1.0032 1.0035 1.00264 0.997062
0.999907 1 1 0.999907
0.999549 1 1 0.999549
0.999358 1 1 0.999358
0.998946 1 1 0.998946
0.999601 1 1.00102 0.998587
1.00153 1 1.00324 0.998297
0.998345 1 1 0.998345
1.0129 1 1.01449 0.998429
0.999389 1 1 0.999389
0.99943 1 1.00053 0.9989
1.02216 1.02434 0.999999 0.997878
1.0022 1 1.00374 0.998463
1.00032 1 1.00215 0.998166
0.998455 1 1.00004 0.99842
1.00981 1.01244 1 0.997404
1.01476 1.01705 1 0.997745
1.00271 1.00042 1.00482 0.99748
1.00237 1.00534 1 0.99705
0.999066 1 1 0.999066
1.00085 1 1.00228 0.998576
1.00228 1.00013 1.00415 0.998008
0.999554 1 1.00135 0.998202
1.02613 1.03309 0.99519 0.998066
1.01688 1.01908 0.999949 0.997888
1.00738 1.01017 1 0.997239
1.00328 1.0024 1.00377 0.997117
0.999093 1 1.00021 0.998881
1.02332 1.03427 0.991329 0.998063
1.00102 1 1.0027 0.998323
1.00099 1.00057 1.00268 0.997745
1.02353 1.02704 0.998427 0.998155
1.00752 1.01022 1 0.997327
1.00465 1.00445 1.00323 0.996979
0.99918 1 1 0.99918
0.999021 1 1 0.999021
0.998919 1 1 0.998919
0.999484 1 1 0.999484
0.999211 1 1 0.999211
0.999034 1 1 0.999034
0.999472 1 1 0.999472
0.999174 1 1 0.999174
0.998941 1 1 0.998941
0.999041 1 1 0.999041
0.998876 1 1 0.998876
0.998912 1 1 0.998912
0.999009 1 1 0.999009
0.999158 1 1 0.999158
0.999446 1 1 0.999446
0.999857 1 1 0.999857
0.999866 1 1 0.999866
1 1 1 1
0.999872 1 1 0.999872
1 1 1 1
1 1 1 1