# vtk DataFile Version 2.0
Wound Healing Simulation
ASCII
DATASET UNSTRUCTURED_GRID
POINTS 3012 float
69.9759 18.75 4
67.2507 60.3285 4
69.976 18.75 2
73.0099 25.446 4
71.1327 20.9142 4
68.6801 16.6661 4
67.8256 19.9261 3.98271
67.2507 60.3286 2
71.1327 54.0858 4
68.6801 58.3339 4
65.6939 62.2254 4
65.3121 59.0012 3.98197
74.6784 42.3946 4
73.7221 47.2057 4
69.9759 18.75 0
73.0099 25.446 2
68.6801 16.6661 2
71.1327 20.9142 2
67.826 19.929 2
74.6792 32.6053 4
73.7222 27.7943 4
72.1454 23.1494 4
70.6142 26.2209 3.98236
68.8858 21.958 3.98316
67.2507 14.6715 4
66.6369 17.9721 3.98162
65.7965 21.0256 3.97346
67.2507 60.3285 0
71.1327 54.0858 2
68.6801 58.3339 2
65.694 62.2255 2
65.3132 58.9978 2
72.1454 51.8506 4
69.9759 56.25 4
68.8364 53.113 3.98222
64.0165 64.0165 4
66.6106 57.1337 3.98216
63.8857 60.7661 3.98407
63.4994 57.7701 3.97369
60.3285 67.2507 4
74.6792 42.3947 2
73.7222 47.2057 2
74.9194 39.9526 4
74.2788 44.8158 4
72.1682 42.0856 3.98135
73.0099 49.554 4
71.2493 46.5981 3.98132
73.0099 25.446 0
71.1327 20.9142 0
68.6801 16.6661 0
67.8256 19.9261 0.0172943
74.6792 32.6053 2
73.7222 27.7943 2
67.2508 14.6715 2
72.1455 23.1494 2
70.6142 26.2213 2
66.6377 17.9756 2
68.886 21.96 2
65.7959 21.0261 2
74.9197 35.0474 4
74.2794 30.1841 4
72.1849 32.9432 3.98174
71.2782 28.4313 3.98175
69.8156 24.0595 3.98296
68.3465 26.9513 3.97193
66.7621 22.9333 3.97272
65.694 12.7746 4
65.3235 16.1036 3.98224
64.7125 19.1963 3.97346
63.8844 22.0373 3.96916
71.1327 54.0858 0
65.6939 62.2254 0
68.6801 58.3339 0
65.3121 59.0012 0.0180286
72.1455 51.8506 2
69.9759 56.25 2
68.8366 53.1111 2
64.0165 64.0165 2
66.6114 57.1303 2
63.8873 60.7634 2
63.4989 57.7702 2
62.2254 65.694 4
58.8948 65.4143 3.99117
69.769 50.9889 3.98209
67.7837 55.1672 3.98216
66.6488 52.2088 3.97177
62.3362 62.4276 3.98708
64.6599 56.0306 3.97357
62.2022 59.4028 3.97517
61.8195 56.6767 3.96889
58.3339 68.6801 4
60.3285 67.2508 2
73.7221 47.2057 0
74.6784 42.3946 0
74.9197 39.9526 2
74.2794 44.8159 2
72.1679 42.0856 2
73.0099 49.554 2
71.2492 46.5979 2
75 37.5 4
72.4055 39.8022 3.98165
71.7826 44.3529 3.98142
69.8036 41.7893 3.97122
70.5751 48.8135 3.98166
68.9117 46.0144 3.97097
74.6792 32.6053 0
73.7222 27.7943 0
67.2507 14.6715 0
72.1454 23.1494 0
70.6142 26.2209 0.017637
68.8858 21.958 0.016836
66.6369 17.9721 0.0183824
65.7965 21.0256 0.0265379
74.9197 35.0474 2
74.2794 30.1841 2
72.1845 32.9435 2
71.2782 28.4316 2
65.694 12.7745 2
65.3248 16.1069 2
69.8157 24.0606 2
68.3464 26.9516 2
64.7119 19.1966 2
66.7616 22.9338 2
63.8838 22.0373 2
72.4133 35.2241 3.98176
71.804 30.6762 3.98179
69.8396 33.2682 3.97168
68.9657 29.0381 3.97165
67.6109 24.912 3.97226
66.1927 27.6352 3.96851
64.0165 10.9835 4
64.7543 23.8313 3.96895
63.8903 14.327 3.98514
63.512 17.4491 3.97397
62.903 20.324 3.96909
62.0864 22.9478 3.96754
60.6841 11.0978 3.98798
57.6122 11.449 3.9804
72.1454 51.8506 0
69.9759 56.25 0
68.8364 53.113 0.0177766
64.0165 64.0165 0
63.8857 60.7661 0.0159304
66.6106 57.1337 0.0178351
63.4994 57.7701 0.026311
62.2255 65.694 2
58.8957 65.4139 2
69.769 50.9879 2
67.7841 55.1644 2
66.6484 52.2082 2
62.3379 62.4259 2
64.6594 56.0304 2
62.2018 59.4035 2
61.8189 56.6773 2
60.6689 63.9771 3.98919
57.0257 66.7349 3.99191
57.5581 63.6915 3.98309
67.5069 50.1763 3.97117
65.7011 54.1726 3.97238
64.5352 51.3834 3.96785
60.7728 60.9368 3.97852
62.8168 55.0643 3.96908
60.6554 58.1546 3.96927
60.3214 55.7767 3.96953
56.25 69.9759 4
58.3339 68.6801 2
60.3285 67.2507 0
58.9213 9.65604 3.98912
62.2254 9.30607 4
73.0099 49.554 0
74.2788 44.8158 0
71.2493 46.5981 0.018684
72.1682 42.0856 0.0186522
74.9194 39.9526 0
75 37.5 2
72.4054 39.8024 2
71.7825 44.3526 2
69.8033 41.789 2
70.5751 48.8132 2
68.9117 46.014 2
72.4888 37.512 3.98145
70.0408 39.6571 3.97122
69.4298 43.9071 3.97108
67.5957 41.4967 3.96856
68.2654 48.1067 3.97099
66.7078 45.4386 3.96797
74.9197 35.0474 0
74.2794 30.1841 0
72.1849 32.9432 0.0182557
71.2782 28.4313 0.0182529
65.694 12.7746 0
65.3235 16.1036 0.017758
69.8156 24.0595 0.0170419
68.3465 26.9513 0.0280682
66.7621 22.9333 0.027278
64.7125 19.1963 0.0265432
63.8844 22.0373 0.030843
72.4133 35.2241 2
71.8039 30.6766 2
69.8393 33.2685 2
68.9657 29.0383 2
64.0165 10.9835 2
63.8918 14.3296 2
63.5115 17.449 2
67.6106 24.9124 2
66.1926 27.6353 2
62.9024 20.324 2
64.7538 23.8314 2
62.0857 22.9478 2
60.6856 11.0994 2
57.6125 11.4482 2
70.0575 35.3917 3.9715
69.4666 31.1493 3.97148
67.654 33.591 3.96881
66.7703 29.6233 3.96842
65.522 25.7001 3.96873
64.1305 28.2592 3.96925
62.3418 12.655 3.98694
62.8483 24.6414 3.96829
62.1988 15.7864 3.9772
61.8087 18.6906 3.96803
61.2104 21.3476 3.96669
60.4037 23.7371 3.96852
59.2461 12.7807 3.97907
55.8743 10.2349 3.98255
56.4045 13.1187 3.97618
69.769 50.9889 0.0179104
62.2254 65.694 0
58.8948 65.4143 0.00882899
67.7837 55.1672 0.0178388
66.6488 52.2088 0.0282281
62.3362 62.4276 0.012917
62.2022 59.4028 0.0248346
64.6599 56.0306 0.0264251
61.8195 56.6767 0.0311089
60.6702 63.9761 2
57.0264 66.7347 2
57.5582 63.6928 2
67.5067 50.1758 2
65.7005 54.1721 2
64.5347 51.3833 2
60.7729 60.9382 2
62.8163 55.0647 2
60.655 58.1554 2
60.321 55.7768 2
55.0714 67.9318 3.99231
59.2191 62.3653 3.98003
55.805 64.9099 3.98607
56.3262 62.088 3.97837
65.3296 49.4067 3.96768
63.7029 53.2898 3.96826
62.4269 50.6454 3.96722
59.3318 59.5537 3.97395
61.0702 54.3019 3.96858
59.2832 57.0001 3.96681
59.2325 55.1709 3.9684
48.1029 68.5783 3.98807
50.9491 69.9315 3.99254
54.0858 71.1327 4
56.25 69.976 2
58.3339 68.6801 0
57.0587 8.33601 3.99005
60.3285 7.74928 4
58.9227 9.65709 2
62.2255 9.30602 2
70.5751 48.8135 0.0183375
71.7826 44.3529 0.0185762
68.9117 46.0144 0.0290347
69.8036 41.7893 0.0287766
72.4055 39.8022 0.0183454
75 37.5 0
72.4885 37.5121 2
70.0407 39.6569 2
69.4298 43.9068 2
67.5954 41.4965 2
68.2653 48.1063 2
66.7077 45.4384 2
70.1288 37.5213 3.97141
67.833 39.5117 3.96866
67.2218 43.4688 3.9682
65.5287 41.2067 3.97044
66.0666 47.4166 3.96785
64.6278 44.8432 3.96923
72.4133 35.2241 0.018235
71.804 30.6762 0.0182104
69.8396 33.2682 0.028316
68.9657 29.0381 0.0283522
64.0165 10.9835 0
63.8903 14.327 0.0148557
63.512 17.4491 0.0260312
67.6109 24.912 0.0277449
66.1927 27.6352 0.0314944
64.7543 23.8313 0.0310525
62.903 20.324 0.0309075
62.0864 22.9478 0.032459
60.6841 11.0978 0.012016
57.6122 11.449 0.0196039
70.0575 35.3919 2
69.4666 31.1496 2
67.6537 33.5911 2
66.7703 29.6233 2
62.3434 12.6571 2
62.1984 15.7859 2
61.8083 18.6902 2
65.5217 25.7002 2
64.1299 28.2593 2
61.2097 21.3475 2
62.8477 24.6414 2
60.4035 23.7374 2
59.2463 12.7802 2
56.4043 13.1176 2
55.8746 10.2338 2
67.8692 35.5474 3.96888
67.2635 31.6226 3.96857
65.6779 33.9284 3.97064
64.644 30.1952 3.96945
63.5258 26.4182 3.96885
62.2164 28.7857 3.97243
60.7754 14.2251 3.97897
61.0184 25.347 3.97003
60.6097 17.1329 3.97208
60.2105 19.8257 3.96518
59.6368 22.2697 3.96569
58.9395 24.3346 3.97058
54.0376 9.13703 3.98408
57.9095 14.3369 3.97742
54.7864 12.0166 3.9781
55.3106 14.6555 3.97514
67.5069 50.1763 0.0288319
57.0257 66.7349 0.00808973
60.6689 63.9771 0.010808
57.5581 63.6915 0.016906
65.7011 54.1726 0.0276176
64.5352 51.3834 0.0321471
60.7728 60.9368 0.021479
60.6554 58.1546 0.0307253
62.8168 55.0643 0.030916
60.3214 55.7767 0.0304667
55.0719 67.9318 2
59.2192 62.3666 2
55.8049 64.9109 2
56.3262 62.0895 2
65.3293 49.4066 2
63.7023 53.2898 2
62.4272 50.6453 2
59.3317 59.5552 2
61.07 54.302 2
59.283 56.9998 2
59.2322 55.1708 2
53.0433 68.9996 3.99243
53.9674 66.0127 3.98726
57.8796 60.8673 3.97699
54.6838 63.2064 3.98196
55.2096 60.6114 3.97629
63.1732 48.6544 3.96789
61.7322 52.5687 3.96701
60.2309 50.0046 3.96873
58.0137 58.2546 3.97006
59.3163 53.9349 3.96755
58.1145 55.7961 3.96545
50.1096 67.8564 3.98793
47.4634 66.58 3.98509
46.0565 69.1575 3.98813
48.1028 68.5789 2
48.8032 70.7228 3.99263
50.9495 69.9315 2
51.8506 72.1454 4
54.0858 71.1327 2
56.25 69.9759 0
55.1034 7.14047 3.99101
58.3339 6.31992 4
57.0598 8.33649 2
60.3286 7.74926 2
58.9213 9.65604 0.0108843
62.2254 9.30607 0
68.2654 48.1067 0.0290109
69.4298 43.9071 0.0289226
66.7078 45.4386 0.0320262
67.5957 41.4967 0.0314369
70.0408 39.6571 0.0287839
72.4888 37.512 0.0185481
70.1286 37.5213 2
67.833 39.5116 2
67.2217 43.4686 2
65.5282 41.2066 2
66.0666 47.4164 2
64.6273 44.843 2
67.9294 37.5216 3.9688
65.7614 39.3682 3.97066
65.1521 43.0212 3.9699
63.6908 40.9242 3.9735
63.9394 46.7104 3.96853
62.7507 44.2069 3.97286
70.0575 35.3917 0.0284964
69.4666 31.1493 0.0285199
67.654 33.591 0.0311899
66.7703 29.6233 0.0315821
62.3418 12.655 0.0130632
62.1988 15.7864 0.0227994
61.8087 18.6906 0.0319678
65.522 25.7001 0.0312735
64.1305 28.2592 0.0307456
62.8483 24.6414 0.0317079
61.2104 21.3476 0.0333105
60.4037 23.7371 0.0314823
59.2461 12.7807 0.0209322
56.4045 13.1187 0.0238228
55.8743 10.2349 0.017454
67.8692 35.5474 2
67.2635 31.6227 2
65.6776 33.9285 2
64.6435 30.1953 2
60.7752 14.2246 2
60.6093 17.1317 2
60.2107 19.8254 2
63.5254 26.4182 2
62.2153 28.7859 2
59.6386 22.2698 2
61.0179 25.3472 2
58.9386 24.3353 2
57.9089 14.336 2
55.3102 14.6551 2
54.0378 9.13614 2
54.7864 12.0152 2
65.852 35.667 3.97066
65.1621 32.1567 3.96993
64.2361 34.2513 3.97343
62.5349 30.6429 3.97313
61.612 27.0815 3.97094
60.784 29.1511 3.97587
59.3094 15.6731 3.97623
59.2761 25.8113 3.97349
59.115 18.3654 3.96891
58.7182 20.867 3.96413
58.2446 23.1083 3.96639
57.9127 24.6829 3.97252
52.1123 8.15471 3.98543
53.058 11.021 3.98002
56.674 15.7504 3.97653
53.8083 13.6893 3.97591
54.3725 16.0112 3.97664
55.0714 67.9318 0.00768606
65.3296 49.4067 0.0323159
55.805 64.9099 0.013927
59.2191 62.3653 0.0199728
56.3262 62.088 0.0216262
63.7029 53.2898 0.0317417
62.4269 50.6454 0.0327832
59.3318 59.5537 0.0260496
59.2832 57.0001 0.0331857
61.0702 54.3019 0.0314205
59.2325 55.1709 0.0315969
53.0437 68.9997 2
53.9673 66.0135 2
57.8793 60.8686 2
54.6836 63.2076 2
55.2096 60.613 2
63.1729 48.6542 2
61.733 52.5688 2
60.2305 50.0043 2
58.0133 58.2564 2
59.3164 53.9346 2
58.1139 55.7956 2
52.0708 66.9994 3.98774
52.9537 64.218 3.98393
56.6454 59.4838 3.97501
[...]
POINT_DATA 3012
SCALARS rho_c_phif_kappa float 4
LOOKUP_TABLE default
1000 0 1.00124 0.257817
1000 0 1.00107 0.258103
1000 0 1.00124 0.257632
1000 0 1.00124 0.257998
1000 0 1.00124 0.257808
1000 0 1.00124 0.257885
1007.71 8.70771e-09 1.00138 0.257244
1000 0 1.00107 0.258129
1000 0 1.00107 0.258009
1000 0 1.00107 0.25797
1000 0 1.00124 0.257542
1007.69 8.56379e-09 1.00148 0.257189
1000 0 1.00124 0.258093
1000 0 1.00124 0.258364
1000 0 1.00124 0.257433
1000 0 1.00124 0.258062
1000 0 1.00124 0.25761
1000 0 1.00124 0.257719
1007.71 8.7235e-09 1.00138 0.257364
1000 0 1.00107 0.258274
1000 0 1.00124 0.258099
1000 0 1.00124 0.257879
1007.66 8.7819e-09 1.00138 0.257583
1007.69 8.7391e-09 1.00138 0.257345
1000 0 1.00124 0.257935
1007.73 8.67583e-09 1.00139 0.257116
1007.77 9.01996e-09 1.00151 0.256509
1000 0 1.00107 0.2582
1000 0 1.00116 0.257861
1000 0 1.00115 0.257784
1000 0 1.00107 0.258245
1007.72 8.58169e-09 1.00148 0.257194
1000 0 1.00124 0.257736
1000 0 1.00124 0.257458
1007.7 8.74992e-09 1.00139 0.257304
1000 0 1.00107 0.25813
1007.68 8.62156e-09 1.00139 0.257363
1007.73 8.53266e-09 1.00148 0.257353
1007.79 9.04794e-09 1.00151 0.256611
1000 0 1.00107 0.258471
1000 0 1.00107 0.258275
1000 0 1.00115 0.258284
1000 0 1.00107 0.258289
1000 0 1.00124 0.258428
1007.62 8.79088e-09 1.00147 0.25769
1000 0 1.00107 0.258409
1007.67 8.81356e-09 1.00139 0.257548
1000 0 1.00124 0.258183
1000 0 1.00124 0.257623
1000 0 1.00124 0.257341
1007.71 8.70771e-09 1.00138 0.257484
1000 0 1.00115 0.25842
1000 0 1.00124 0.258194
1000 0 1.00124 0.257627
1000 0 1.00124 0.257879
1007.58 8.79485e-09 1.00138 0.257554
1007.76 8.69347e-09 1.00139 0.257288
1007.66 8.7527e-09 1.00138 0.25741
1007.77 9.01633e-09 1.00151 0.25642
1000 0 1.00107 0.258307
1000 0 1.00124 0.258153
1007.61 8.77525e-09 1.00138 0.257808
1007.65 8.78926e-09 1.00138 0.257675
1007.68 8.76524e-09 1.00138 0.257455
1007.74 8.98494e-09 1.00151 0.256419
1007.76 9.00616e-09 1.00151 0.256385
1000 0 1.00124 0.257928
1007.76 8.64767e-09 1.00139 0.257046
1007.78 9.03642e-09 1.00152 0.256533
1007.6 8.81877e-09 1.00149 0.255104
1000 0 1.00107 0.257974
1000 0 1.00107 0.258282
1000 0 1.00107 0.258069
1007.69 8.56379e-09 1.00148 0.257205
1000 0 1.00107 0.25803
1000 0 1.00107 0.257942
1007.67 8.76415e-09 1.00148 0.257315
1000 0 1.00115 0.257881
1007.71 8.63903e-09 1.00148 0.257257
1007.74 8.54765e-09 1.00144 0.257379
1007.79 9.0439e-09 1.00151 0.25665
1000 0 1.00107 0.258393
1007.91 8.54777e-09 1.00149 0.257548
1007.7 8.79122e-09 1.00148 0.257463
1007.69 8.69007e-09 1.00148 0.257413
1007.75 8.99668e-09 1.0015 0.25625
1007.78 8.52013e-09 1.0014 0.257486
1007.78 9.03494e-09 1.00151 0.256488
1007.8 9.05955e-09 1.00151 0.256765
1007.63 8.86483e-09 1.0015 0.255731
1000 0 1.00107 0.2585
1000 0 1.00107 0.25846
1000 0 1.00107 0.258184
1000 0 1.00107 0.258287
1000 0 1.00107 0.258291
1000 0 1.00115 0.258349
1007.5 8.80548e-09 1.00143 0.257633
1000 0 1.00115 0.258173
1007.58 8.82782e-09 1.00143 0.257589
1000 0 1.00107 0.258308
1007.59 8.77441e-09 1.00147 0.25767
1007.64 8.80488e-09 1.00139 0.257582
1007.73 8.97307e-09 1.0015 0.256328
1007.69 8.81153e-09 1.00139 0.257433
1007.73 8.97835e-09 1.0015 0.256426
1000 0 1.00124 0.258083
1000 0 1.00124 0.258348
1000 0 1.00124 0.257345
1000 0 1.00124 0.257891
1007.66 8.7819e-09 1.00138 0.257501
1007.69 8.7391e-09 1.00138 0.257474
1007.73 8.67583e-09 1.00139 0.257455
1007.77 9.01996e-09 1.00151 0.25634
1000 0 1.00107 0.258279
1000 0 1.00124 0.258274
1007.51 8.79022e-09 1.00142 0.257644
1007.54 8.80325e-09 1.00138 0.257642
1000 0 1.00115 0.25789
1007.78 8.66395e-09 1.00139 0.257294
1007.61 8.77783e-09 1.00138 0.257459
1007.75 8.98212e-09 1.00151 0.256366
1007.77 9.03244e-09 1.00152 0.256424
1007.76 9.00293e-09 1.00151 0.25637
1007.6 8.81929e-09 1.00149 0.255097
1007.58 8.76769e-09 1.00147 0.257745
1007.62 8.78622e-09 1.00138 0.257712
1007.73 8.97624e-09 1.0015 0.256395
1007.73 8.97957e-09 1.00151 0.256409
1007.74 8.99383e-09 1.00151 0.256338
1007.57 8.77641e-09 1.00149 0.255222
1000 0 1.00107 0.258292
1007.59 8.80173e-09 1.00149 0.255044
1007.8 8.62132e-09 1.00149 0.257167
1007.79 9.05458e-09 1.00151 0.256573
1007.62 8.83844e-09 1.0015 0.2552
1007.59 8.80537e-09 1.00149 0.254079
1007.89 8.59708e-09 1.00149 0.257558
1007.78 9.0667e-09 1.00151 0.257828
1000 0 1.00107 0.258029
1000 0 1.00107 0.257999
1007.7 8.74992e-09 1.00148 0.257348
1000 0 1.00107 0.258338
1007.73 8.53266e-09 1.00148 0.257242
1007.68 8.62156e-09 1.00148 0.257257
1007.79 9.04794e-09 1.00151 0.256681
1000 0 1.00107 0.258411
1007.91 8.5543e-09 1.00149 0.257595
1007.64 8.80424e-09 1.00143 0.257441
1007.7 8.70622e-09 1.00143 0.257379
1007.75 8.99345e-09 1.0015 0.256253
1007.78 8.53116e-09 1.00148 0.257315
1007.78 9.03086e-09 1.00151 0.256529
1007.8 9.05617e-09 1.00151 0.2568
1007.64 8.86578e-09 1.0015 0.255676
1007.85 8.52917e-09 1.00149 0.257422
1007.98 8.56691e-09 1.00149 0.257579
1007.79 9.06727e-09 1.00151 0.257851
1007.74 8.98271e-09 1.0015 0.256296
1007.77 9.01631e-09 1.00151 0.256305
1007.58 8.79949e-09 1.00149 0.254937
1007.8 9.06536e-09 1.00151 0.257246
1007.62 8.84477e-09 1.0015 0.255341
1007.65 8.88285e-09 1.0015 0.255884
1007.63 8.8495e-09 1.0015 0.254562
1000 0 1.00107 0.25851
1000 0 1.00107 0.258479
1000 0 1.00107 0.258441
1007.95 8.60407e-09 1.00149 0.257633
1000 0 1.00107 0.258362
1000 0 1.00107 0.258125
1000 0 1.00107 0.258239
1007.67 8.81356e-09 1.00147 0.257644
1007.62 8.79088e-09 1.00147 0.257723
1000 0 1.00107 0.258308
1000 0 1.00107 0.258298
1007.57 8.78898e-09 1.00147 0.257689
1007.62 8.81894e-09 1.00143 0.257633
1007.75 8.96991e-09 1.0015 0.256329
1007.6 8.82481e-09 1.00147 0.257537
1007.75 8.9753e-09 1.0015 0.256415
1007.59 8.76337e-09 1.00147 0.257699
1007.73 8.96873e-09 1.0015 0.25627
1007.73 8.97698e-09 1.0015 0.256401
1007.56 8.76539e-09 1.00149 0.255268
1007.73 8.97904e-09 1.0015 0.256377
1007.57 8.76943e-09 1.00149 0.255252
1000 0 1.00107 0.258278
1000 0 1.00124 0.25842
1007.61 8.77525e-09 1.00146 0.257717
1007.65 8.78926e-09 1.00138 0.257585
1000 0 1.00107 0.25805
1007.76 8.64767e-09 1.0014 0.257541
1007.68 8.76524e-09 1.00138 0.257458
1007.74 8.98494e-09 1.00151 0.256309
1007.76 9.00616e-09 1.00151 0.25636
1007.78 9.03642e-09 1.00152 0.256312
1007.6 8.81877e-09 1.00149 0.255088
1007.54 8.78238e-09 1.00147 0.257715
1007.6 8.80037e-09 1.00138 0.257677
1007.75 8.97313e-09 1.0015 0.256371
1007.75 8.97662e-09 1.00151 0.256422
1000 0 1.00107 0.258298
1007.8 8.6345e-09 1.00144 0.257309
1007.79 9.05086e-09 1.00152 0.256573
1007.75 8.99092e-09 1.00151 0.256309
1007.57 8.77663e-09 1.00149 0.255141
1007.62 8.83952e-09 1.0015 0.255176
1007.59 8.80205e-09 1.00149 0.255073
1007.59 8.80568e-09 1.00149 0.254085
1007.89 8.60728e-09 1.00149 0.257472
1007.78 9.06416e-09 1.00151 0.257806
1007.73 8.97137e-09 1.0015 0.256304
1007.73 8.97673e-09 1.00151 0.256442
1007.56 8.76698e-09 1.00149 0.255412
1007.56 8.77039e-09 1.00149 0.255127
1007.58 8.78702e-09 1.00149 0.255051
1007.56 8.77188e-09 1.00149 0.254163
1007.84 8.60151e-09 1.00149 0.257389
1007.58 8.79188e-09 1.00149 0.253955
1007.8 9.06604e-09 1.00151 0.257035
1007.63 8.86158e-09 1.0015 0.255521
1007.61 8.8243e-09 1.0015 0.254213
1007.59 8.79988e-09 1.00149 0.253021
1007.79 9.06556e-09 1.00151 0.257615
1007.77 9.06628e-09 1.00151 0.258099
1007.65 8.89472e-09 1.0015 0.257255
1007.7 8.79122e-09 1.00148 0.257461
1000 0 1.00107 0.258408
1007.91 8.54777e-09 1.00149 0.257643
1007.69 8.69007e-09 1.00148 0.257277
1007.75 8.99668e-09 1.0015 0.256259
1007.78 8.52013e-09 1.00148 0.257431
1007.8 9.05955e-09 1.00151 0.256837
1007.78 9.03494e-09 1.00151 0.256563
1007.63 8.86483e-09 1.0015 0.255629
1007.84 8.53776e-09 1.00149 0.257508
1007.97 8.57257e-09 1.00149 0.257576
1007.79 9.06478e-09 1.00151 0.257905
1007.75 8.97977e-09 1.0015 0.256286
1007.77 9.01274e-09 1.00151 0.256328
1007.58 8.80003e-09 1.00149 0.254943
1007.8 9.06206e-09 1.00151 0.257255
1007.62 8.84553e-09 1.0015 0.255373
1007.65 8.88372e-09 1.0015 0.255894
1007.63 8.8496e-09 1.0015 0.25446
1008.04 8.58765e-09 1.0015 0.257523
1007.79 9.0651e-09 1.00151 0.257646
1007.78 9.06696e-09 1.00151 0.258112
1007.66 8.90305e-09 1.00151 0.257379
1007.57 8.79144e-09 1.00149 0.25499
1007.6 8.81639e-09 1.0015 0.255027
1007.58 8.78368e-09 1.00149 0.253638
1007.66 8.89409e-09 1.0015 0.256535
1007.61 8.82912e-09 1.0015 0.254036
1007.65 8.8728e-09 1.0015 0.254609
1007.63 8.84253e-09 1.0015 0.253507
1007.74 9.06335e-09 1.00151 0.258174
1008.15 8.62925e-09 1.0015 0.257403
1000 0 1.00107 0.258526
1000 0 1.00107 0.258498
1000 0 1.00107 0.258466
1008.02 8.62428e-09 1.0015 0.257629
1000 0 1.00107 0.258417
1007.95 8.61262e-09 1.00149 0.25758
1000 0 1.00107 0.258358
1007.69 8.81153e-09 1.00147 0.257561
1007.64 8.80488e-09 1.00147 0.257711
1007.73 8.97835e-09 1.0015 0.256406
1007.73 8.97307e-09 1.0015 0.256332
1007.59 8.77441e-09 1.00147 0.257716
1000 0 1.00107 0.258309
1007.44 8.77911e-09 1.00147 0.257704
1007.73 8.96566e-09 1.0015 0.256271
1007.73 8.97393e-09 1.0015 0.2564
1007.56 8.76559e-09 1.00149 0.255263
1007.75 8.97613e-09 1.0015 0.256362
1007.56 8.76968e-09 1.00149 0.255248
1007.72 8.96794e-09 1.0015 0.25627
1007.56 8.76719e-09 1.00149 0.255271
1007.56 8.76798e-09 1.00149 0.255278
1007.55 8.76275e-09 1.00148 0.254269
1007.57 8.77512e-09 1.00149 0.255133
1007.56 8.77511e-09 1.00149 0.254222
1007.58 8.76769e-09 1.00147 0.257684
1007.62 8.78622e-09 1.00138 0.257627
1007.73 8.97624e-09 1.0015 0.256344
1007.73 8.97957e-09 1.00151 0.256429
1000 0 1.00107 0.258301
1007.8 8.62132e-09 1.0014 0.257348
1007.79 9.05458e-09 1.00152 0.256559
1007.74 8.99383e-09 1.00151 0.256279
1007.57 8.77641e-09 1.00149 0.255057
1007.59 8.80173e-09 1.00149 0.255101
1007.62 8.83844e-09 1.0015 0.255148
1007.59 8.80537e-09 1.00149 0.254089
1007.89 8.59708e-09 1.00149 0.257397
1007.78 9.0667e-09 1.00151 0.257786
1007.73 8.96827e-09 1.0015 0.256291
1007.73 8.97396e-09 1.00151 0.25642
1007.56 8.76722e-09 1.00149 0.255375
1007.56 8.77067e-09 1.00149 0.255199
1007.84 8.61296e-09 1.00149 0.257315
1007.79 9.06247e-09 1.00151 0.256986
1007.64 8.86264e-09 1.0015 0.255583
1007.58 8.78727e-09 1.00149 0.255076
1007.56 8.77194e-09 1.00149 0.254083
1007.61 8.82495e-09 1.0015 0.254131
1007.58 8.79207e-09 1.00149 0.253948
1007.59 8.80019e-09 1.00149 0.252952
1007.79 9.06281e-09 1.00151 0.257638
1007.65 8.89541e-09 1.0015 0.257295
1007.77 9.06379e-09 1.00151 0.258037
1007.56 8.76863e-09 1.00149 0.255366
1007.56 8.7683e-09 1.00149 0.255318
1007.55 8.76081e-09 1.00149 0.254552
1007.56 8.76389e-09 1.00149 0.254043
1007.57 8.78098e-09 1.00149 0.2539
1007.56 8.76413e-09 1.00149 0.252968
1007.79 9.06661e-09 1.00151 0.2574
1007.58 8.78354e-09 1.00149 0.25263
1007.65 8.88086e-09 1.0015 0.256349
1007.63 8.85162e-09 1.0015 0.254272
1007.6 8.8126e-09 1.00149 0.253041
1007.58 8.79114e-09 1.00149 0.251611
1007.76 9.06414e-09 1.00151 0.258288
1007.65 8.89199e-09 1.0015 0.257312
1007.65 8.89646e-09 1.0015 0.257427
1007.67 8.88758e-09 1.00151 0.256795
1007.74 8.98271e-09 1.0015 0.256279
1007.98 8.56691e-09 1.00149 0.257553
1007.85 8.52917e-09 1.00149 0.257612
1007.79 9.06727e-09 1.00151 0.257967
1007.77 9.01631e-09 1.00151 0.256351
1007.58 8.79949e-09 1.00149 0.254946
1007.8 9.06536e-09 1.00151 0.257256
1007.65 8.88285e-09 1.0015 0.255884
1007.62 8.84477e-09 1.0015 0.255408
1007.63 8.8495e-09 1.0015 0.25435
1008.03 8.593e-09 1.0015 0.257496
1007.79 9.06247e-09 1.00151 0.257657
1007.78 9.06463e-09 1.00151 0.258188
1007.66 8.90306e-09 1.00151 0.257355
1007.57 8.79158e-09 1.00149 0.254993
1007.6 8.81729e-09 1.0015 0.255031
1007.58 8.78367e-09 1.00149 0.253647
1007.66 8.89457e-09 1.0015 0.256542
1007.62 8.82959e-09 1.0015 0.254118
1007.65 8.87309e-09 1.0015 0.254523
1007.63 8.84278e-09 1.0015 0.253566
1008.1 8.60648e-09 1.0015 0.257456
1007.77 9.06535e-09 1.00151 0.258289
1007.66 8.89883e-09 1.0015 0.257132
1007.65 8.90283e-09 1.00151 0.257771
1007.68 8.89819e-09 1.00151 0.256578
1007.57 8.75267e-09 1.00149 0.253749
1007.6 8.82732e-09 1.00149 0.253674
1007.58 8.7579e-09 1.00149 0.252097
1007.66 8.892e-09 1.0015 0.255231
1007.61 8.81941e-09 1.0015 0.252524
1007.64 8.85363e-09 1.0015 0.253269
1007.75 9.06352e-09 1.00151 0.258233
1007.65 8.89644e-09 1.00151 0.258599
1007.73 9.06274e-09 1.00151 0.258139
1007.74 9.06197e-09 1.00151 0.258183
1008.21 8.65191e-09 1.00141 0.257667
1008.15 8.63429e-09 1.00145 0.2576
1000 0 1.00125 0.257952
1000 0 1.00107 0.258518
1000 0 1.00107 0.258489
1008.09 8.65248e-09 1.0015 0.257605
1000 0 1.00107 0.258453
1008.01 8.63157e-09 1.0015 0.257615
1000 0 1.00107 0.258418
1007.95 8.60407e-09 1.00149 0.257528
1000 0 1.00107 0.258353
1007.73 8.97904e-09 1.0015 0.256347
1007.73 8.97698e-09 1.0015 0.256398
1007.57 8.76943e-09 1.00149 0.255243
1007.56 8.76539e-09 1.00149 0.255258
1007.73 8.96873e-09 1.0015 0.256271
1007.59 8.76337e-09 1.00147 0.257685
1007.75 8.9646e-09 1.0015 0.256267
1007.56 8.76732e-09 1.00149 0.255268
1007.56 8.76821e-09 1.00149 0.255272
1007.56 8.76268e-09 1.00148 0.254177
1007.56 8.77541e-09 1.00149 0.255126
1007.56 8.77511e-09 1.00149 0.254233
1007.56 8.77087e-09 1.00149 0.255291
1007.55 8.75082e-09 1.00148 0.254395
1007.56 8.76634e-09 1.00149 0.254128
1007.55 8.72031e-09 1.00148 0.253353
1007.56 8.77185e-09 1.00149 0.254102
1007.55 8.7344e-09 1.00148 0.252658
1007.73 8.97137e-09 1.0015 0.256283
1007.73 8.97673e-09 1.00151 0.256398
1007.56 8.76698e-09 1.00149 0.255339
1007.56 8.77039e-09 1.00149 0.255271
1007.84 8.60151e-09 1.00149 0.257243
1007.8 9.06604e-09 1.00151 0.256945
1007.63 8.86158e-09 1.0015 0.25565
1007.58 8.78702e-09 1.00149 0.255104
1007.56 8.77188e-09 1.00149 0.254003
1007.58 8.79188e-09 1.00149 0.253941
1007.61 8.8243e-09 1.0015 0.254056
1007.59 8.79988e-09 1.00149 0.252877
1007.79 9.06556e-09 1.00151 0.257656
1007.65 8.89472e-09 1.0015 0.257325
1007.77 9.06628e-09 1.00151 0.257985
1007.56 8.76878e-09 1.00149 0.25534
1007.56 8.76856e-09 1.00149 0.255286
1007.56 8.76067e-09 1.00148 0.254509
1007.56 8.76377e-09 1.00149 0.254081
1007.79 9.06316e-09 1.00151 0.257415
1007.65 8.88094e-09 1.0015 0.256346
1007.63 8.85295e-09 1.0015 0.254322
1007.57 8.781e-09 1.00149 0.253957
1007.56 8.76389e-09 1.00149 0.252892
1007.6 8.81305e-09 1.00149 0.252986
1007.58 8.78352e-09 1.00149 0.252647
1007.58 8.79108e-09 1.00149 0.251525
1007.65 8.8923e-09 1.0015 0.257302
1007.67 8.88805e-09 1.00151 0.256792
1007.76 9.06205e-09 1.00151 0.258235
1007.65 8.89655e-09 1.0015 0.257473
1007.55 8.74168e-09 1.00148 0.254559
1007.56 8.7656e-09 1.00149 0.254356
1007.55 8.76091e-09 1.00148 0.253677
1007.56 8.76878e-09 1.00148 0.252467
1007.57 8.76917e-09 1.00149 0.252742
1007.56 8.773e-09 1.00148 0.252172
1007.65 8.88792e-09 1.0015 0.257053
1007.57 8.78696e-09 1.00149 0.251126
1007.66 8.87955e-09 1.0015 0.255089
1007.62 8.8311e-09 1.0015 0.253057
1007.6 8.80271e-09 1.00149 0.251834
1007.58 8.80505e-09 1.00149 0.250737
1007.75 9.06173e-09 1.00151 0.258331
1007.65 8.89588e-09 1.0015 0.257773
1007.66 8.88605e-09 1.0015 0.256835
1007.67 8.89431e-09 1.00151 0.25675
1007.67 8.89175e-09 1.00151 0.256586
1008.04 8.58765e-09 1.0015 0.257463
1007.57 8.79144e-09 1.00149 0.254998
1007.78 9.06696e-09 1.00151 0.258285
1007.79 9.0651e-09 1.00151 0.257655
1007.66 8.90305e-09 1.00151 0.257333
1007.6 8.81639e-09 1.0015 0.255029
1007.58 8.78368e-09 1.00149 0.253656
1007.66 8.89409e-09 1.0015 0.256564
1007.65 8.8728e-09 1.0015 0.25441
1007.61 8.82912e-09 1.0015 0.254201
1007.63 8.84253e-09 1.0015 0.253636
1008.09 8.61173e-09 1.0015 0.257432
1007.77 9.06352e-09 1.00151 0.258338
1007.66 8.89938e-09 1.0015 0.257143
1007.65 8.90245e-09 1.00151 0.257775
1007.68 8.89815e-09 1.00151 0.256539
1007.57 8.75381e-09 1.00149 0.253732
1007.6 8.82739e-09 1.00149 0.253673
1007.58 8.75892e-09 1.00149 0.25203
1007.66 8.89143e-09 1.0015 0.255277
1007.61 8.81891e-09 1.0015 0.252633
1007.64 8.85382e-09 1.0015 0.253329
1007.76 9.06424e-09 1.00151 0.25829
1007.65 8.89986e-09 1.00151 0.258206
1007.67 8.89646e-09 1.00151 0.256144
1007.68 8.9039e-09 1.00151 0.256883
1007.68 8.89537e-09 1.00151 0.256139
1007.56 8.74138e-09 1.00149 0.252803
1007.58 8.68187e-09 1.00149 0.251767
1007.57 8.93557e-09 1.00149 0.250264
1007.66 8.87316e-09 1.0015 0.253929
1007.6 8.7388e-09 1.0015 0.2519
1007.75 9.06207e-09 1.00151 0.258243
1007.65 8.8976e-09 1.0015 0.258553
1007.65 8.89642e-09 1.00151 0.258595
1007.68 8.89715e-09 1.00151 0.258124
1007.65 8.89478e-09 1.00151 0.258587
1007.72 9.06184e-09 1.00151 0.258132
1007.73 9.06141e-09 1.00151 0.258143
1008.26 8.68165e-09 1.00141 0.257644
1007.74 9.06335e-09 1.00151 0.258191
1008.2 8.65675e-09 1.00141 0.257744
1000 0 1.00125 0.257953
1008.15 8.62925e-09 1.00141 0.257729
1000 0 1.00116 0.258113
1000 0 1.00107 0.258511
1008.15 8.68201e-09 1.0015 0.257552
1008.08 8.65891e-09 1.0015 0.257602
1000 0 1.00107 0.258477
1000 0 1.00107 0.258462
1008.02 8.62428e-09 1.0015 0.257594
1000 0 1.00107 0.258413
1007.57 8.77512e-09 1.00149 0.255118
1007.56 8.76798e-09 1.00149 0.25527
1007.56 8.77511e-09 1.00149 0.254246
1007.55 8.76275e-09 1.00148 0.254085
1007.56 8.76719e-09 1.00149 0.255264
1007.72 8.96794e-09 1.0015 0.256262
1007.56 8.77115e-09 1.00149 0.255291
1007.55 8.75086e-09 1.00148 0.254448
1007.56 8.76617e-09 1.00149 0.254133
1007.55 8.72013e-09 1.00148 0.253209
1007.57 8.7717e-09 1.00149 0.254087
1007.55 8.73413e-09 1.00148 0.252649
1007.55 8.74408e-09 1.00148 0.254645
1007.55 8.67874e-09 1.00148 0.253763
1007.56 8.74377e-09 1.00148 0.252691
1007.57 8.96133e-09 1.00148 0.252535
1007.57 8.75698e-09 1.00149 0.253141
1007.58 8.86403e-09 1.00148 0.251509
1007.56 8.76863e-09 1.00149 0.255311
1007.56 8.7683e-09 1.00149 0.255254
1007.55 8.76081e-09 1.00148 0.254469
1007.56 8.76389e-09 1.00149 0.254122
1007.79 9.06661e-09 1.00151 0.257426
1007.65 8.88086e-09 1.0015 0.25634
1007.63 8.85162e-09 1.0015 0.254369
1007.57 8.78098e-09 1.00149 0.254012
1007.56 8.76413e-09 1.00148 0.252818
1007.58 8.78354e-09 1.00149 0.252666
1007.6 8.8126e-09 1.00149 0.252926
1007.58 8.79114e-09 1.00149 0.251447
1007.65 8.89199e-09 1.0015 0.257298
1007.67 8.88758e-09 1.00151 0.256795
1007.76 9.06414e-09 1.00151 0.258183
1007.65 8.89646e-09 1.0015 0.257522
1007.55 8.74181e-09 1.00148 0.254564
1007.56 8.76582e-09 1.00149 0.254346
1007.55 8.7613e-09 1.00148 0.25368
1007.56 8.76934e-09 1.00148 0.252576
1007.65 8.88811e-09 1.0015 0.257036
1007.66 8.87983e-09 1.0015 0.255202
1007.62 8.83192e-09 1.0015 0.252979
1007.57 8.76966e-09 1.00149 0.252827
1007.56 8.77393e-09 1.00148 0.252097
1007.6 8.80299e-09 1.00149 0.251822
1007.57 8.78771e-09 1.00149 0.251138
1007.58 8.80556e-09 1.00149 0.250696
1007.66 8.88565e-09 1.0015 0.25683
1007.67 8.89181e-09 1.0015 0.256569
1007.68 8.89441e-09 1.00151 0.256745
1007.75 9.06002e-09 1.00151 0.25829
1007.65 8.89592e-09 1.0015 0.257812
1007.56 8.75093e-09 1.00148 0.253767
1007.55 8.70406e-09 1.00148 0.253029
1007.55 8.72042e-09 1.00148 0.251447
1007.55 8.77077e-09 1.00148 0.251512
1007.66 8.88859e-09 1.0015 0.256291
1007.56 8.78566e-09 1.00149 0.249352
1007.65 8.8591e-09 1.0015 0.253925
1007.61 8.78363e-09 1.0015 0.251625
1007.6 8.92866e-09 1.00149 0.250533
1007.73 9.0601e-09 1.00151 0.258294
1007.65 8.89549e-09 1.00151 0.258056
1007.68 8.89825e-09 1.00151 0.25709
1007.67 8.88378e-09 1.0015 0.25647
1007.67 8.89766e-09 1.00151 0.256286
1007.66 8.88285e-09 1.0015 0.256319
1008.1 8.60648e-09 1.0015 0.257406
1007.77 9.06535e-09 1.00151 0.258386
1007.57 8.75267e-09 1.00149 0.253714
1007.65 8.90283e-09 1.00151 0.257775
1007.66 8.89883e-09 1.0015 0.257154
1007.68 8.89819e-09 1.00151 0.256498
1007.6 8.82732e-09 1.00149 0.253671
1007.58 8.7579e-09 1.00149 0.251973
1007.66 8.892e-09 1.0015 0.255321
1007.64 8.85363e-09 1.0015 0.25337
1007.61 8.81941e-09 1.0015 0.252726
1007.76 9.06265e-09 1.00151 0.25831
1007.65 8.89955e-09 1.00151 0.258242
1007.67 8.89643e-09 1.00151 0.256159
1007.68 8.90326e-09 1.00151 0.256887
1007.68 8.89568e-09 1.00151 0.256071
1007.56 8.7362e-09 1.00149 0.252751
1007.58 8.68387e-09 1.00149 0.251798
1007.57 8.93095e-09 1.00149 0.250208
1007.66 8.87394e-09 1.0015 0.253872
1007.6 8.74154e-09 1.0015 0.251906
1007.65 8.89858e-09 1.00151 0.258444
1007.68 8.90333e-09 1.00151 0.257358