# vtk DataFile Version 2.0
Wound Healing Simulation
ASCII
DATASET UNSTRUCTURED_GRID
POINTS 3012 float
69.9759 18.75 4
67.2507 60.3285 4
69.976 18.75 2
73.0099 25.446 4
71.1327 20.9142 4
68.6801 16.6661 4
67.8276 19.9249 3.98748
67.2507 60.3286 2
71.1327 54.0858 4
68.6801 58.3339 4
65.6939 62.2254 4
65.3141 59.0039 3.98859
74.6784 42.3946 4
73.7221 47.2057 4
69.9759 18.75 0
73.0099 25.446 2
68.6801 16.6661 2
71.1327 20.9142 2
67.8282 19.9262 2
74.6792 32.6053 4
73.7222 27.7943 4
72.1454 23.1494 4
70.6157 26.2225 3.98602
68.8878 21.9583 3.98711
67.2507 14.6715 4
66.6391 17.9694 3.98807
65.8031 21.0217 3.98221
67.2507 60.3285 0
71.1327 54.0858 2
68.6801 58.3339 2
65.694 62.2255 2
65.3145 59.0034 2
72.1454 51.8506 4
69.9759 56.25 4
68.8386 53.1129 3.98679
64.0165 64.0165 4
66.6128 57.1358 3.98827
63.8874 60.7688 3.98994
63.5053 57.7786 3.98393
60.3285 67.2507 4
74.6792 42.3947 2
73.7222 47.2057 2
74.9194 39.9526 4
74.2788 44.8158 4
72.169 42.0855 3.98438
73.0099 49.554 4
71.2507 46.5972 3.98586
73.0099 25.446 0
71.1327 20.9142 0
68.6801 16.6661 0
67.8276 19.9249 0.0125174
74.6792 32.6053 2
73.7222 27.7943 2
67.2508 14.6715 2
72.1455 23.1494 2
70.6158 26.2233 2
66.6397 17.9701 2
68.8882 21.9598 2
65.8033 21.0211 2
74.9197 35.0474 4
74.2794 30.1841 4
72.1857 32.9434 3.98496
71.2795 28.4324 3.98589
69.8175 24.0609 3.98662
68.3507 26.952 3.97801
66.768 22.9317 3.9808
65.694 12.7746 4
65.3255 16.1002 3.9891
64.7196 19.1889 3.98348
63.8961 22.0289 3.97912
71.1327 54.0858 0
65.6939 62.2254 0
68.6801 58.3339 0
65.3141 59.0039 0.0114106
72.1455 51.8506 2
69.9759 56.25 2
68.8389 53.1113 2
64.0165 64.0165 2
66.6133 57.1349 2
63.8877 60.7686 2
63.5054 57.7793 2
62.2254 65.694 4
58.8948 65.4159 3.99265
69.7709 50.9878 3.98636
67.786 55.1684 3.98769
66.6552 52.211 3.98043
62.3374 62.4299 3.99133
64.6668 56.0371 3.98389
62.2065 59.412 3.9844
61.8309 56.6916 3.98143
58.3339 68.6801 4
60.3285 67.2508 2
73.7221 47.2057 0
74.6784 42.3946 0
74.9197 39.9526 2
74.2794 44.8159 2
72.169 42.0857 2
73.0099 49.554 2
71.2507 46.5971 2
75 37.5 4
72.4059 39.8021 3.98349
71.7837 44.3525 3.98531
69.8067 41.7896 3.9767
70.5769 48.8123 3.98616
68.9163 46.0147 3.97775
74.6792 32.6053 0
73.7222 27.7943 0
67.2507 14.6715 0
72.1454 23.1494 0
70.6157 26.2225 0.0139809
68.8878 21.9583 0.0128941
66.6391 17.9694 0.0119257
65.8031 21.0217 0.0177918
74.9197 35.0474 2
74.2794 30.1841 2
72.1857 32.9434 2
71.2796 28.4327 2
65.694 12.7745 2
65.326 16.1003 2
69.8176 24.0621 2
68.3506 26.9521 2
64.7199 19.1879 2
66.768 22.9314 2
63.8963 22.0281 2
72.4138 35.2242 3.9838
71.8051 30.6767 3.98576
69.843 33.2687 3.97727
68.9699 29.0387 3.97793
67.6159 24.9118 3.97925
66.1999 27.6338 3.97491
64.0165 10.9835 4
64.7646 23.8261 3.97759
63.8915 14.324 3.99023
63.5182 17.4389 3.98478
62.916 20.3112 3.98027
62.1041 22.9343 3.97745
60.6848 11.0953 3.99183
57.6132 11.4401 3.98691
72.1454 51.8506 0
69.9759 56.25 0
68.8386 53.1129 0.0132077
64.0165 64.0165 0
63.8874 60.7688 0.0100611
66.6128 57.1358 0.0117266
63.5053 57.7786 0.0160726
62.2255 65.694 2
58.895 65.416 2
69.7711 50.9866 2
67.7865 55.167 2
66.6551 52.2113 2
62.3377 62.4297 2
64.667 56.0379 2
62.2065 59.4127 2
61.8309 56.6925 2
60.6695 63.979 3.99206
57.0253 66.7367 3.99319
57.5588 63.6971 3.98741
67.5125 50.1774 3.97902
65.7083 54.177 3.98251
64.546 51.3897 3.97682
60.7755 60.9451 3.98534
62.8295 55.077 3.98154
60.6642 58.1704 3.9815
60.3377 55.7987 3.98037
56.25 69.9759 4
58.3339 68.6801 2
60.3285 67.2507 0
58.9218 9.65362 3.99241
62.2254 9.30607 4
73.0099 49.554 0
74.2788 44.8158 0
71.2507 46.5972 0.014143
72.169 42.0855 0.0156241
74.9194 39.9526 0
75 37.5 2
72.4059 39.8024 2
71.7837 44.3527 2
69.8067 41.7896 2
70.5769 48.8117 2
68.9162 46.0146 2
72.4892 37.512 3.98334
70.0427 39.6574 3.97527
69.4339 43.9074 3.97753
67.6013 41.4984 3.97347
68.2704 48.1073 3.97823
66.7156 45.4414 3.97481
74.9197 35.0474 0
74.2794 30.1841 0
72.1857 32.9434 0.0150352
71.2795 28.4324 0.0141084
65.694 12.7746 0
65.3255 16.1002 0.0108955
69.8175 24.0609 0.0133799
68.3507 26.952 0.021994
66.768 22.9317 0.0192021
64.7196 19.1889 0.016521
63.8961 22.0289 0.0208814
72.4138 35.2241 2
71.8052 30.6767 2
69.843 33.2689 2
68.9699 29.0388 2
64.0165 10.9835 2
63.8918 14.3241 2
63.5184 17.4381 2
67.6159 24.9118 2
66.1999 27.6336 2
62.9165 20.3103 2
64.7647 23.8256 2
62.1044 22.9337 2
60.685 11.0954 2
57.6132 11.4394 2
70.0597 35.3923 3.97593
69.4707 31.1498 3.97799
67.66 33.5906 3.97402
66.7776 29.622 3.97479
65.5306 25.6973 3.97602
64.1526 28.253 3.97394
62.3426 12.6523 3.99113
62.8666 24.6312 3.97605
62.2023 15.7765 3.9852
61.8215 18.6735 3.98178
61.2288 21.3301 3.97819
60.4383 23.7165 3.97689
59.2475 12.7715 3.98552
55.875 10.2268 3.98836
56.4065 13.1026 3.98372
69.7709 50.9878 0.0136423
62.2254 65.694 0
58.8948 65.4159 0.00734615
67.786 55.1684 0.0123071
66.6552 52.211 0.0195678
62.3374 62.4299 0.00867375
62.2065 59.412 0.0155979
64.6668 56.0371 0.0161098
61.8309 56.6916 0.0185704
60.6698 63.979 2
57.0255 66.7368 2
57.5587 63.6977 2
67.5123 50.1774 2
65.7084 54.1776 2
64.546 51.3903 2
60.7755 60.9459 2
62.8297 55.078 2
60.6642 58.1712 2
60.3379 55.7994 2
55.0707 67.9336 3.99346
59.2208 62.3724 3.98601
55.8051 64.9144 3.98887
56.3285 62.0981 3.98428
65.339 49.4111 3.97562
63.7157 53.2993 3.97941
62.4518 50.6588 3.97499
59.3371 59.5674 3.98314
61.0887 54.3208 3.98056
59.2965 57.0258 3.97948
59.253 55.1972 3.98111
48.1032 68.5817 3.99025
50.9484 69.9331 3.99388
54.0858 71.1327 4
56.25 69.976 2
58.3339 68.6801 0
57.0589 8.33349 3.9929
60.3285 7.74928 4
58.9221 9.65357 2
62.2255 9.30602 2
70.5769 48.8123 0.0138378
71.7837 44.3525 0.0146914
68.9163 46.0147 0.0222461
69.8067 41.7896 0.0232973
72.4059 39.8021 0.0165079
75 37.5 0
72.4892 37.5122 2
70.0428 39.6574 2
69.4339 43.9074 2
67.6014 41.4986 2
68.2703 48.1072 2
66.7156 45.4416 2
70.1307 37.5217 3.97526
67.8367 39.5128 3.97203
67.2289 43.4712 3.97441
65.5609 41.2119 3.97251
66.0752 47.42 3.97524
64.6594 44.8517 3.9739
72.4138 35.2242 0.0161963
71.8051 30.6767 0.014242
69.843 33.2687 0.0227268
68.9699 29.0387 0.0220709
64.0165 10.9835 0
63.8915 14.324 0.00977059
63.5182 17.4389 0.0152158
67.6159 24.9118 0.0207473
66.1999 27.6338 0.0250885
64.7646 23.8261 0.0224096
62.916 20.3112 0.01973
62.1041 22.9343 0.0225535
60.6848 11.0953 0.00817054
57.6132 11.4401 0.0130928
70.0599 35.3925 2
69.4708 31.15 2
67.6601 33.5905 2
66.7777 29.6219 2
62.3429 12.6525 2
62.2024 15.7759 2
61.8218 18.6725 2
65.5306 25.697 2
64.1527 28.2528 2
61.2293 21.3293 2
62.8668 24.6307 2
60.4387 23.7159 2
59.2475 12.7708 2
56.4065 13.1018 2
55.8751 10.226 2
67.8734 35.5477 3.97283
67.2709 31.6216 3.97493
65.7034 33.9262 3.97283
64.6696 30.1897 3.97367
63.5458 26.4103 3.97454
62.2645 28.7737 3.97455
60.7772 14.2159 3.98509
61.0557 25.3298 3.97531
60.618 17.1164 3.98307
60.2321 19.8029 3.97986
59.6736 22.245 3.97677
58.9916 24.3075 3.97734
54.038 9.13039 3.98895
57.9121 14.3214 3.98342
54.7876 12.0018 3.98496
55.3141 14.6332 3.98238
67.5125 50.1774 0.0209839
57.0253 66.7367 0.00681353
60.6695 63.979 0.0079449
57.5588 63.6971 0.0125878
65.7083 54.177 0.0174931
64.546 51.3897 0.0231782
60.7755 60.9451 0.0146577
60.6642 58.1704 0.0184987
62.8295 55.077 0.0184604
60.3377 55.7987 0.0196335
55.0709 67.9336 2
59.2207 62.3733 2
55.805 64.915 2
56.3284 62.0988 2
65.3389 49.4115 2
63.7158 53.3002 2
62.4519 50.6594 2
59.3372 59.5683 2
61.0888 54.3216 2
59.2966 57.0265 2
59.2532 55.1979 2
53.0426 69.0013 3.9937
53.9673 66.0164 3.98949
57.8831 60.8792 3.98368
54.6847 63.2143 3.98553
55.2135 60.6261 3.98266
63.2029 48.6662 3.97412
61.7534 52.5846 3.97788
60.2847 50.0285 3.97399
58.0232 58.2735 3.98096
59.3398 53.9608 3.9797
58.1354 55.8271 3.9775
50.1098 67.8597 3.99006
47.4638 66.5861 3.98798
46.0569 69.1612 3.99046
48.1032 68.5821 2
48.8026 70.7243 3.99403
50.9487 69.9331 2
51.8506 72.1454 4
54.0858 71.1327 2
56.25 69.9759 0
55.1031 7.1381 3.9931
58.3339 6.31992 4
57.0592 8.33336 2
60.3286 7.74926 2
58.9218 9.65362 0.00758863
62.2254 9.30607 0
68.2704 48.1073 0.0217715
69.4339 43.9074 0.0224726
66.7156 45.4414 0.0251878
67.6013 41.4984 0.0265255
70.0427 39.6574 0.0247284
72.4892 37.512 0.0166634
70.1308 37.5218 2
67.8368 39.5129 2
67.2289 43.4714 2
65.5611 41.2122 2
66.0751 47.4203 2
64.6594 44.852 2
67.9329 37.5224 3.97195
65.7904 39.3715 3.97103
65.1825 43.0282 3.97343
63.7616 40.9326 3.97226
63.9735 46.7207 3.97413
62.8155 44.2215 3.9744
70.0597 35.3923 0.0240709
69.4707 31.1498 0.0220144
67.66 33.5906 0.0259826
66.7776 29.622 0.0252074
62.3426 12.6523 0.00887331
62.2023 15.7765 0.0147966
61.8215 18.6735 0.0182165
65.5306 25.6973 0.0239806
64.1526 28.253 0.0260636
62.8666 24.6312 0.0239521
61.2288 21.3301 0.0218095
60.4383 23.7165 0.0231144
59.2475 12.7715 0.014479
56.4065 13.1026 0.0162789
55.875 10.2268 0.0116353
67.8736 35.5477 2
67.271 31.6215 2
65.7036 33.926 2
64.6697 30.1896 2
60.7772 14.2153 2
60.6181 17.1155 2
60.2326 19.802 2
63.5459 26.41 2
62.2646 28.7735 2
59.6742 22.2443 2
61.056 25.3294 2
58.9921 24.3071 2
57.9121 14.3207 2
55.314 14.6323 2
54.038 9.12977 2
54.7876 12.0009 2
65.8801 35.6667 3.97169
65.1932 32.152 3.97368
64.2907 34.2489 3.97282
62.6028 30.6321 3.97338
61.6596 27.067 3.97363
60.8583 29.1343 3.97544
59.3136 15.6582 3.98347
59.3424 25.7861 3.97764
59.13 18.342 3.98194
58.7506 20.839 3.97785
58.2978 23.0775 3.97549
57.9815 24.6513 3.97772
52.1126 8.14912 3.98928
53.0584 11.0084 3.98598
56.6788 15.7297 3.9826
53.8106 13.668 3.98328
54.3783 15.9841 3.98214
55.0707 67.9336 0.00654064
65.339 49.4111 0.0243751
55.8051 64.9144 0.0111314
59.2208 62.3724 0.0139916
56.3285 62.0981 0.0157203
63.7157 53.2993 0.0205918
62.4518 50.6588 0.0250126
59.3371 59.5674 0.0168642
59.2965 57.0258 0.0205229
61.0887 54.3208 0.0194396
59.253 55.1972 0.0188944
53.0428 69.0014 2
53.9672 66.0169 2
57.8831 60.8799 2
54.6845 63.2149 2
55.2133 60.627 2
63.2029 48.6666 2
61.7536 52.5854 2
60.2848 50.0292 2
58.0233 58.2743 2
59.34 53.9615 2
58.1355 55.8277 2
52.0708 67.0028 3.98985
52.9537 64.2243 3.98663
56.6515 59.4999 3.98239
[...]
POINT_DATA 3012
SCALARS Jp_lamdaP float 4
LOOKUP_TABLE default
1 1 1 1
1 1 1 1
1 1 1 1
0.999993 1 1 0.999993
0.999999 1 1 0.999999
1 1 1 1
0.999904 1 1 0.999904
1 1 1 1
1 1 1 1
1 1 1 1
1 1 1 1
0.999975 1 1 0.999975
0.999981 1 1 0.999981
0.999994 1 1 0.999994
1 1 1 1
0.999994 1 1 0.999994
1 1 1 1
1 1 1 1
0.999905 1 1 0.999905
1 1 1 1
0.99999 1 1 0.99999
0.999997 1 1 0.999997
0.999834 1 1 0.999834
0.999885 1 1 0.999885
1 1 1 1
0.999926 1 1 0.999926
0.999724 1 1 0.999724
1 1 1 1
0.999999 1 1 0.999999
1 1 1 1
1 1 1 1
0.999978 1 1 0.999978
0.999998 1 1 0.999998
1 1 1 1
0.999926 1 1 0.999926
1 1 1 1
0.999963 1 1 0.999963
0.999987 1 1 0.999987
0.999766 1 1 0.999766
1 1 1 1
1 1 1 1
0.999997 1 1 0.999997
1 1 1 1
0.99999 1 1 0.99999
0.999834 1 1 0.999834
1 1 1 1
0.999889 1 1 0.999889
0.999995 1 1 0.999995
1 1 1 1
1 1 1 1
0.999906 1 1 0.999906
0.999991 1 1 0.999991
0.999992 1 1 0.999992
1 1 1 1
0.999998 1 1 0.999998
0.999835 1 1 0.999835
0.999927 1 1 0.999927
0.999886 1 1 0.999886
0.999718 1 1 0.999718
1 1 1 1
0.999987 1 1 0.999987
0.999854 1 1 0.999854
0.999818 1 1 0.999818
0.999861 1 1 0.999861
0.999554 1 1 0.999554
0.999655 1 1 0.999655
1 1 1 1
0.999952 1 1 0.999952
0.999773 1 1 0.999773
0.999495 1 1 0.999495
1 1 1 1
1 1 1 1
1 1 1 1
0.999981 1 1 0.999981
1 1 1 1
1 1 1 1
0.999931 1 1 0.999931
1 1 1 1
0.999967 1 1 0.999967
0.99999 1 1 0.99999
0.999765 1 1 0.999765
1 1 1 1
1 1 1 1
0.999908 1 1 0.999908
0.999946 1 1 0.999946
0.999625 1 1 0.999625
0.999997 1 1 0.999997
0.999744 1 1 0.999744
0.999789 1 1 0.999789
0.9996 1 1 0.9996
1 1 1 1
1 1 1 1
1 1 1 1
1 1 1 1
1 1 1 1
0.999994 1 1 0.999994
0.999845 1 1 0.999845
0.999998 1 1 0.999998
0.99989 1 1 0.99989
1 1 1 1
0.999809 1 1 0.999809
0.999872 1 1 0.999872
0.999414 1 1 0.999414
0.9999 1 1 0.9999
0.999479 1 1 0.999479
0.999984 1 1 0.999984
0.999993 1 1 0.999993
1 1 1 1
0.999999 1 1 0.999999
0.999837 1 1 0.999837
0.999888 1 1 0.999888
0.999928 1 1 0.999928
0.999711 1 1 0.999711
1 1 1 1
0.999989 1 1 0.999989
0.999817 1 1 0.999817
0.999819 1 1 0.999819
1 1 1 1
0.999968 1 1 0.999968
0.999862 1 1 0.999862
0.999539 1 1 0.999539
0.999766 1 1 0.999766
0.999664 1 1 0.999664
0.999496 1 1 0.999496
0.999819 1 1 0.999819
0.999813 1 1 0.999813
0.999454 1 1 0.999454
0.999499 1 1 0.999499
0.99959 1 1 0.99959
0.999328 1 1 0.999328
1 1 1 1
0.999457 1 1 0.999457
0.999996 1 1 0.999996
0.999786 1 1 0.999786
0.999534 1 1 0.999534
0.999403 1 1 0.999403
1 1 1 1
0.999863 1 1 0.999863
1 1 1 1
1 1 1 1
0.999936 1 1 0.999936
1 1 1 1
0.999994 1 1 0.999994
0.99997 1 1 0.99997
0.999764 1 1 0.999764
1 1 1 1
1 1 1 1
0.999913 1 1 0.999913
0.999951 1 1 0.999951
0.999626 1 1 0.999626
0.999998 1 1 0.999998
0.999744 1 1 0.999744
0.999789 1 1 0.999789
0.999595 1 1 0.999595
1 1 1 1
1 1 1 1
0.999878 1 1 0.999878
0.999562 1 1 0.999562
0.999695 1 1 0.999695
0.999432 1 1 0.999432
0.999821 1 1 0.999821
0.999575 1 1 0.999575
0.999613 1 1 0.999613
0.999529 1 1 0.999529
1 1 1 1
1 1 1 1
1 1 1 1
1 1 1 1
1 1 1 1
1 1 1 1
1 1 1 1
0.999889 1 1 0.999889
0.999843 1 1 0.999843
1 1 1 1
1 1 1 1
0.999811 1 1 0.999811
0.999873 1 1 0.999873
0.999414 1 1 0.999414
0.9999 1 1 0.9999
0.99948 1 1 0.99948
0.999801 1 1 0.999801
0.999374 1 1 0.999374
0.999451 1 1 0.999451
0.999225 1 1 0.999225
0.999514 1 1 0.999514
0.999296 1 1 0.999296
1 1 1 1
0.999991 1 1 0.999991
0.999779 1 1 0.999779
0.99982 1 1 0.99982
1 1 1 1
0.999983 1 1 0.999983
0.999864 1 1 0.999864
0.999525 1 1 0.999525
0.999674 1 1 0.999674
0.999759 1 1 0.999759
0.999497 1 1 0.999497
0.999817 1 1 0.999817
0.999813 1 1 0.999813
0.999425 1 1 0.999425
0.999509 1 1 0.999509
1 1 1 1
0.999994 1 1 0.999994
0.999798 1 1 0.999798
0.999592 1 1 0.999592
0.999311 1 1 0.999311
0.999531 1 1 0.999531
0.999464 1 1 0.999464
0.999405 1 1 0.999405
1 1 1 1
0.999863 1 1 0.999863
0.999382 1 1 0.999382
0.999483 1 1 0.999483
0.999253 1 1 0.999253
0.999258 1 1 0.999258
0.999407 1 1 0.999407
0.999244 1 1 0.999244
1 1 1 1
0.999368 1 1 0.999368
0.999806 1 1 0.999806
0.999585 1 1 0.999585
0.99944 1 1 0.99944
0.999376 1 1 0.999376
0.999832 1 1 0.999832
0.999907 1 1 0.999907
0.999653 1 1 0.999653
0.999916 1 1 0.999916
1 1 1 1
1 1 1 1
0.999957 1 1 0.999957
0.999628 1 1 0.999628
1 1 1 1
0.999789 1 1 0.999789
0.999745 1 1 0.999745
0.99959 1 1 0.99959
1 1 1 1
1 1 1 1
0.999878 1 1 0.999878
0.999562 1 1 0.999562
0.999697 1 1 0.999697
0.999432 1 1 0.999432
0.999821 1 1 0.999821
0.999581 1 1 0.999581
0.999612 1 1 0.999612
0.999521 1 1 0.999521
1 1 1 1
0.999849 1 1 0.999849
0.999913 1 1 0.999913
0.999682 1 1 0.999682
0.999369 1 1 0.999369
0.999519 1 1 0.999519
0.999336 1 1 0.999336
0.999643 1 1 0.999643
0.999504 1 1 0.999504
0.999505 1 1 0.999505
0.999467 1 1 0.999467
0.999978 1 1 0.999978
1 1 1 1
1 1 1 1
1 1 1 1
1 1 1 1
1 1 1 1
1 1 1 1
1 1 1 1
1 1 1 1
0.999902 1 1 0.999902
0.999871 1 1 0.999871
0.99948 1 1 0.99948
0.999414 1 1 0.999414
0.999813 1 1 0.999813
1 1 1 1
0.9998 1 1 0.9998
0.999374 1 1 0.999374
0.999451 1 1 0.999451
0.999224 1 1 0.999224
0.999514 1 1 0.999514
0.999296 1 1 0.999296
0.999362 1 1 0.999362
0.999183 1 1 0.999183
0.999263 1 1 0.999263
0.999169 1 1 0.999169
0.99933 1 1 0.99933
0.999234 1 1 0.999234
0.999815 1 1 0.999815
0.999814 1 1 0.999814
0.999396 1 1 0.999396
0.999519 1 1 0.999519
1 1 1 1
0.999991 1 1 0.999991
0.999811 1 1 0.999811
0.999593 1 1 0.999593
0.999294 1 1 0.999294
0.999471 1 1 0.999471
0.999528 1 1 0.999528
0.999406 1 1 0.999406
1 1 1 1
0.999864 1 1 0.999864
0.999371 1 1 0.999371
0.999483 1 1 0.999483
0.999246 1 1 0.999246
0.999276 1 1 0.999276
0.999999 1 1 0.999999
0.999806 1 1 0.999806
0.999596 1 1 0.999596
0.999407 1 1 0.999407
0.99924 1 1 0.99924
0.999427 1 1 0.999427
0.999369 1 1 0.999369
0.999375 1 1 0.999375
0.999833 1 1 0.999833
0.99965 1 1 0.99965
0.999906 1 1 0.999906
0.99922 1 1 0.99922
0.999264 1 1 0.999264
0.999157 1 1 0.999157
0.999191 1 1 0.999191
0.999317 1 1 0.999317
0.999247 1 1 0.999247
0.999818 1 1 0.999818
0.999351 1 1 0.999351
0.999644 1 1 0.999644
0.999475 1 1 0.999475
0.99936 1 1 0.99936
0.999402 1 1 0.999402
0.999944 1 1 0.999944
0.999654 1 1 0.999654
0.99966 1 1 0.99966
0.999572 1 1 0.999572
0.999563 1 1 0.999563
1 1 1 1
1 1 1 1
0.999878 1 1 0.999878
0.999699 1 1 0.999699
0.999432 1 1 0.999432
0.999821 1 1 0.999821
0.999611 1 1 0.999611
0.999587 1 1 0.999587
0.999513 1 1 0.999513
1 1 1 1
0.999848 1 1 0.999848
0.999914 1 1 0.999914
0.999681 1 1 0.999681
0.999368 1 1 0.999368
0.99952 1 1 0.99952
0.999336 1 1 0.999336
0.999643 1 1 0.999643
0.999512 1 1 0.999512
0.999502 1 1 0.999502
0.999486 1 1 0.999486
1 1 1 1
0.99994 1 1 0.99994
0.999666 1 1 0.999666
0.99971 1 1 0.99971
0.99957 1 1 0.99957
0.999284 1 1 0.999284
0.99943 1 1 0.99943
0.999301 1 1 0.999301
0.999525 1 1 0.999525
0.999458 1 1 0.999458
0.999389 1 1 0.999389
0.999969 1 1 0.999969
0.999825 1 1 0.999825
0.999985 1 1 0.999985
0.99998 1 1 0.99998
1 1 1 1
1 1 1 1
1 1 1 1
1 1 1 1
1 1 1 1
1 1 1 1
1 1 1 1
1 1 1 1
1 1 1 1
1 1 1 1
1 1 1 1
0.999515 1 1 0.999515
0.999451 1 1 0.999451
0.999297 1 1 0.999297
0.999224 1 1 0.999224
0.999374 1 1 0.999374
0.9998 1 1 0.9998
0.999362 1 1 0.999362
0.999183 1 1 0.999183
0.999263 1 1 0.999263
0.999166 1 1 0.999166
0.999329 1 1 0.999329
0.999234 1 1 0.999234
0.99917 1 1 0.99917
0.99913 1 1 0.999129
0.999199 1 1 0.999199
0.999156 1 1 0.999156
0.999261 1 1 0.999261
0.999258 1 1 0.999258
0.999361 1 1 0.999361
0.999483 1 1 0.999483
0.999239 1 1 0.999239
0.999294 1 1 0.999294
0.999998 1 1 0.999998
0.999806 1 1 0.999806
0.999608 1 1 0.999608
0.999406 1 1 0.999406
0.999236 1 1 0.999236
0.999369 1 1 0.999369
0.999414 1 1 0.999414
0.999374 1 1 0.999374
0.999834 1 1 0.999834
0.999646 1 1 0.999646
0.999905 1 1 0.999905
0.999205 1 1 0.999205
0.999264 1 1 0.999264
0.999148 1 1 0.999148
0.999195 1 1 0.999195
0.999818 1 1 0.999818
0.999642 1 1 0.999642
0.999488 1 1 0.999488
0.999322 1 1 0.999322
0.999253 1 1 0.999253
0.999349 1 1 0.999349
0.999352 1 1 0.999352
0.999407 1 1 0.999407
0.999655 1 1 0.999655
0.999562 1 1 0.999562
0.999942 1 1 0.999942
0.999666 1 1 0.999666
0.999121 1 1 0.999121
0.999168 1 1 0.999168
0.999111 1 1 0.999111
0.999181 1 1 0.999181
0.999316 1 1 0.999316
0.999274 1 1 0.999274
0.999657 1 1 0.999657
0.999407 1 1 0.999407
0.999544 1 1 0.999544
0.999385 1 1 0.999385
0.999305 1 1 0.999305
0.999405 1 1 0.999405
0.999963 1 1 0.999963
0.999702 1 1 0.999702
0.999576 1 1 0.999576
0.999558 1 1 0.999558
0.999531 1 1 0.999531
1 1 1 1
0.999367 1 1 0.999367
0.999915 1 1 0.999915
0.999848 1 1 0.999848
0.99968 1 1 0.99968
0.999521 1 1 0.999521
0.999336 1 1 0.999336
0.999644 1 1 0.999644
0.999498 1 1 0.999498
0.999519 1 1 0.999519
0.999504 1 1 0.999504
1 1 1 1
0.999942 1 1 0.999942
0.999665 1 1 0.999665
0.999709 1 1 0.999709
0.999566 1 1 0.999566
0.999283 1 1 0.999283
0.99943 1 1 0.99943
0.999298 1 1 0.999298
0.999526 1 1 0.999526
0.999463 1 1 0.999463
0.999398 1 1 0.999398
0.999957 1 1 0.999957
0.999742 1 1 0.999742
0.999551 1 1 0.999551
0.999586 1 1 0.999586
0.999513 1 1 0.999513
0.999264 1 1 0.999264
0.999387 1 1 0.999387
0.999345 1 1 0.999345
0.999419 1 1 0.999419
0.999333 1 1 0.999333
0.999972 1 1 0.999972
0.99978 1 1 0.99978
0.999814 1 1 0.999814
0.999707 1 1 0.999707
0.999836 1 1 0.999836
0.99999 1 1 0.99999
0.999987 1 1 0.999987
1 1 1 1
0.999983 1 1 0.999983
1 1 1 1
1 1 1 1
1 1 1 1
1 1 1 1
1 1 1 1
1 1 1 1
1 1 1 1
1 1 1 1
1 1 1 1
1 1 1 1
1 1 1 1
0.999328 1 1 0.999328
0.999264 1 1 0.999264
0.999234 1 1 0.999234
0.999162 1 1 0.999162
0.999184 1 1 0.999184
0.999362 1 1 0.999362
0.99917 1 1 0.99917
0.999123 1 1 0.999123
0.999199 1 1 0.999199
0.999155 1 1 0.999155
0.999259 1 1 0.999259
0.999257 1 1 0.999257
0.999107 1 1 0.999103
0.999375 1.00026 1 0.999113
0.999195 1 1 0.999195
0.999147 1 1 0.999147
0.999266 1 1 0.999266
0.999278 1 1 0.999278
0.999191 1 1 0.999191
0.999264 1 1 0.999264
0.99914 1 1 0.99914
0.999199 1 1 0.999199
0.999819 1 1 0.999819
0.999641 1 1 0.999641
0.999501 1 1 0.999501
0.999328 1 1 0.999328
0.999259 1 1 0.999259
0.999352 1 1 0.999352
0.999339 1 1 0.999339
0.999412 1 1 0.999412
0.999656 1 1 0.999656
0.999553 1 1 0.999553
0.999939 1 1 0.999939
0.999671 1 1 0.999671
0.999121 1 1 0.999121
0.999171 1 1 0.999171
0.999111 1 1 0.999111
0.999183 1 1 0.999183
0.999657 1 1 0.999657
0.999554 1 1 0.999554
0.999384 1 1 0.999384
0.999311 1 1 0.999311
0.9993 1 1 0.9993
0.9993 1 1 0.9993
0.999408 1 1 0.999408
0.999422 1 1 0.999422
0.999576 1 1 0.999576
0.999528 1 1 0.999528
0.999555 1 1 0.999555
0.999946 1 1 0.999946
0.999708 1 1 0.999708
0.999112 1.00003 1 0.999086
0.999103 1 1 0.999103
0.9992 1 1 0.9992
0.999353 1 1 0.999353
0.999585 1 1 0.999585
0.999458 1 1 0.999458
0.999475 1 1 0.999475
0.999267 1 1 0.999267
0.999257 1 1 0.999257
0.999946 1 1 0.999946
0.99977 1 1 0.99977
0.999594 1 1 0.999594
0.999548 1 1 0.999548
0.999479 1 1 0.999479
0.999498 1 1 0.999498
1 1 1 1
0.999944 1 1 0.999944
0.999281 1 1 0.999281
0.999709 1 1 0.999709
0.999665 1 1 0.999665
0.999562 1 1 0.999562
0.999431 1 1 0.999431
0.999295 1 1 0.999295
0.999528 1 1 0.999528
0.999407 1 1 0.999407
0.999468 1 1 0.999468
0.99996 1 1 0.99996
0.999742 1 1 0.999742
0.999558 1 1 0.999558
0.999585 1 1 0.999585
0.999505 1 1 0.999505
0.999262 1 1 0.999262
0.999384 1 1 0.999384
0.99935 1 1 0.99935
0.999412 1 1 0.999412
0.999318 1 1 0.999318
0.999773 1 1 0.999773
0.999593 1 1 0.999593
0.999474 1 1 0.999474
0.999494 1 1 0.999494
0.999459 1 1 0.999459
0.999379 1 1 0.999379
0.999306 1 1 0.999306
0.999335 1 1 0.999335
0.999432 1 1.00009 0.99934
0.999192 1 1 0.999192
0.999975 1 1 0.999975
0.999789 1 1 0.999789
0.999648 1 1 0.999648
0.999802 1 1 0.999802
0.999836 1 1 0.999836
0.999691 1 1 0.999691
0.999603 1 1 0.999603
0.999687 1 1 0.999687
0.999845 1 1 0.999845
0.999992 1 1 0.999992
0.999991 1 1 0.999991
1 1 1 1
0.999988 1 1 0.999988
1 1 1 1
1 1 1 1
1 1 1 1
1 1 1 1
1 1 1 1
1 1 1 1
1 1 1 1
1 1 1 1
1 1 1 1
1 1 1 1
1 1 1 1
0.999258 1 1 0.999258
0.9992 1 1 0.9992
0.999256 1 1 0.999256
0.999153 1 1 0.999153
0.999118 1 1 0.999118
0.99917 1 1 0.99917
0.999105 1 1 0.999101
0.999292 1.00018 1 0.999115
0.999189 1 1 0.999189
0.999141 1 1 0.999141
0.999266 1 1 0.999266
0.999293 1 1 0.999293
0.999625 1.00054 1 0.999089
0.999545 1.00042 1 0.999125
0.999199 1.00001 1 0.999193
0.999342 1 1 0.999342
0.999122 1 1 0.999122
0.999173 1 1 0.999173
0.999111 1 1 0.999111
0.999184 1 1 0.999184
0.999658 1 1 0.999658
0.999565 1 1 0.999565
0.999383 1 1 0.999383
0.999307 1 1 0.999307
0.999326 1 1 0.999326
0.99941 1 1 0.99941
0.999294 1 1 0.999294
0.999438 1 1 0.999438
0.999577 1 1 0.999577
0.999524 1 1 0.999524
0.999553 1 1 0.999553
0.999929 1 1 0.999929
0.999714 1 1 0.999714
0.999111 1.00002 1 0.999088
0.999108 1 1 0.999108
0.99922 1.00001 1 0.99921
0.999584 1 1 0.999584
0.999489 1 1 0.999489
0.999264 1 1 0.999264
0.999343 1 1 0.999343
0.999282 1 1 0.999282
0.999456 1 1 0.999456
0.999947 1 1 0.999947
0.999548 1 1 0.999548
0.999506 1 1 0.999506
0.999478 1 1 0.999478
0.999599 1 1 0.999599
0.999758 1 1 0.999758
0.999209 1.00013 1 0.999083
0.999092 1 1 0.999092
0.999309 1.00006 1 0.999249
0.999465 1.00005 1 0.999418
0.999541 1 1 0.999541
0.999325 1 1 0.999325
0.999348 1 1 0.999348
0.999245 1 1.00007 0.999175
0.99996 1 1 0.99996
0.999805 1 1 0.999805
0.999639 1 1 0.999639
0.999472 1 1 0.999472
0.999509 1 1 0.999509
0.999448 1 1 0.999448
0.999963 1 1 0.999963
0.999742 1 1 0.999742
0.99926 1 1 0.99926
0.999584 1 1 0.999584
0.999564 1 1 0.999564
0.999498 1 1 0.999498
0.999381 1 1 0.999381
0.999355 1 1 0.999355
0.999406 1 1 0.999406
0.999303 1 1 0.999303
0.999773 1 1 0.999773
0.999598 1 1 0.999598
0.999484 1 1 0.999484
0.9995 1 1 0.9995
0.999463 1 1 0.999463
0.999378 1 1 0.999378
0.999311 1 1 0.999311
0.999376 1 1 0.999376
0.999383 1 1.00005 0.999331
0.999173 1 1 0.999173
0.999624 1 1 0.999624
0.999487 1 1 0.999487
0.999463 1 1.00006 0.9994
0.999416 1 1 0.999416
0.999569 1.00022 1 0.99935
0.999963 1.00068 0.999872 0.99941
0.999177 1 1 0.999177
1.00073 1 1.00158 0.99916
0.999797 1 1 0.999797
0.999656 1 1 0.999656
0.999568 1 1 0.999568
0.999836 1 1 0.999836
0.999674 1 1 0.999674
0.999845 1 1 0.999845
0.99959 1 1 0.99959
0.999693 1 1 0.999693
0.999521 1 1 0.999521
0.999589 1 1 0.999589
0.999696 1 1 0.999696
0.99985 1 1 0.99985
0.999992 1 1 0.999992
0.999992 1 1 0.999992
1 1 1 1
0.999991 1 1 0.999991
1 1 1 1
1 1 1 1
1 1 1 1
1 1 1 1
1 1 1 1
1 1 1 1
1 1 1 1
1 1 1 1
1 1 1 1
1 1 1 1
1 1 1 1
0.999266 1 1 0.999266
0.999183 1 1 0.999183
0.999307 1 1 0.999307
0.999136 1 1 0.999136
0.999191 1.00007 1 0.999117
0.999102 1 1 0.999098
0.999522 1.00043 1 0.999093
0.999517 1.00039 1 0.999124
0.999221 1.00002 1 0.999199
0.999337 1 1 0.999337
0.999892 1.00079 1 0.999105
0.999815 1.00065 1 0.999164
0.999317 1.00006 1 0.999261
0.999106 1.00002 1 0.99909
0.999113 1 1 0.999113
0.999249 1.00003 1 0.99922
0.999583 1 1 0.999583
0.999502 1 1 0.999502
0.999261 1 1 0.999261
0.999333 1 1 0.999333
0.999453 1 1 0.999453
0.999307 1 1 0.999307
0.999547 1 1 0.999547
0.999514 1 1 0.999514
0.999478 1 1 0.999478
0.999947 1 1 0.999947
0.999604 1 1 0.999604
0.999746 1 1 0.999746
0.999288 1.0002 1 0.999085
0.99909 1 1 0.99909
0.999279 1.00004 1 0.999237
0.999539 1 1 0.999539
0.999369 1 1 0.999369
0.999265 1 1.00009 0.99918
0.999825 1.0004 1 0.999428
0.999323 1 1 0.999323
0.999972 1 1 0.999972
0.999806 1 1 0.999806
0.999508 1 1 0.999508
0.999454 1 1 0.999454
0.999477 1 1 0.999477
0.999629 1 1 0.999629
0.999483 1.00038 1 0.999107
0.999459 1.00035 1 0.999108
1.00036 1.00109 0.999905 0.999368
1.00055 1.00111 1 0.999437
0.999473 1 1 0.999473
1.00039 1 1.00127 0.999123
0.99941 1 1.00016 0.999254
0.999995 1 1 0.999995
0.999874 1 1 0.999874
0.999809 1 1 0.999809
0.999652 1 1 0.999652
0.999514 1 1 0.999514
0.999393 1 1 0.999393
0.999491 1 1 0.999491
0.999428 1 1 0.999428
0.999773 1 1 0.999773
0.999603 1 1 0.999603
0.999377 1 1 0.999377
0.999505 1 1 0.999505
0.999495 1 1 0.999495
0.999467 1 1 0.999467
0.999315 1 1 0.999315
0.999417 1 1 0.999417
0.999361 1 1.00004 0.999322
0.999153 1 1 0.999153
0.99962 1 1 0.99962
0.999495 1 1 0.999495
0.999475 1 1.00007 0.999409
0.999424 1 1 0.999424
0.999496 1.00015 1 0.999342
0.99974 1.00038 0.999949 0.999408
0.999196 1 1 0.999196
1.00035 1 1.0012 0.999151
0.999537 1 1 0.999537
0.999465 1.0002 1 0.999265
0.99942 1 1 0.99942
0.999574 1 1.00026 0.999315
1.00149 1.00238 0.999722 0.999391
0.999749 1.00059 1 0.99916
1.00145 1 1.00237 0.999077
0.999664 1 1 0.999664
0.999568 1 1 0.999568
0.999492 1 1 0.999492
0.999845 1 1 0.999845
0.999699 1 1 0.999699
0.999578 1 1 0.999578
0.99985 1 1 0.99985
0.999695 1 1 0.999695
0.999511 1 1 0.999511
0.999602 1 1 0.999602
0.99946 1 1 0.99946
0.999508 1 1 0.999508
0.999614 1 1 0.999614
0.999715 1 1 0.999715
0.99985 1 1 0.99985
0.999991 1 1 0.999991
0.999992 1 1 0.999992
1 1 1 1
0.999992 1 1 0.999992
1 1 1 1
1 1 1 1
1 1 1 1
1 1 1 1
1 1 1 1
0.999999 1 1 0.999999
1 1 1 1
1 1 1 1
1 1 1 1
1 1 1 1
1 1 1 1
1 1 1 1
0.999332 1 1 0.999332
0.999248 1.00004 1 0.999205
0.999508 1.00038 1 0.999124
0.999438 1.00034 1 0.999097
0.999952 1.00084 1 0.99911
0.999866 1.00071 1 0.999156
0.999359 1.00008 1 0.999275
1.00006 1.00091 1 0.999148
0.999804 1.00061 1 0.999194
0.999556 1.00027 1 0.999287
0.999371 1.00028 1 0.999088
0.999089 1 1 0.999087
0.999244 1.00002 1 0.999224
0.999536 1 1 0.999536
0.99939 1 1 0.99939
0.999191 1 1.00001 0.999185
1.00016 1.00072 1 0.999438
0.999321 1 1 0.999321
0.999507 1 1 0.999507
0.99946 1 1 0.99946
0.999482 1 1 0.999482
0.999984 1 1 0.999984
0.999806 1 1 0.999806
0.99962 1 1 0.99962
0.999428 1.00032 1 0.999111
0.999993 1 1 0.999993
0.999865 1 1 0.999865
0.999536 1.00043 1 0.999108
1.00066 1.00132 1 0.999345
0.999485 1 1 0.999485
0.99983 1 1.0006 0.999233
0.99973 1 1.0006 0.99913
1.00017 1.00073 1 0.999436
0.999833 1 1 0.999833
0.999651 1 1 0.999651
0.999486 1 1 0.999486
0.999459 1 1 0.999455
0.999378 1 1 0.999378
0.999516 1 1 0.999516
1.00002 1.00087 1 0.999146
1.00097 1.00178 1 0.99919
1.00193 1.00283 0.999601 0.999503
0.999243 1 1 0.999243
0.999851 1 1.00042 0.999431
1.0022 1 1.0031 0.9991
0.999874 1 1 0.999874
0.999853 1 1 0.999853
0.999756 1 1 0.999756
0.999658 1 1 0.999658
0.999551 1 1 0.999551
0.999413 1 1 0.999413
0.999324 1 1.00001 0.999317
0.999459 1 1 0.999459
0.999615 1 1 0.999615
0.999503 1 1 0.999503
0.999464 1.00013 1 0.999335
0.999509 1.0001 1 0.999406
0.999431 1 1 0.999431
0.999461 1 1.00004 0.999419
0.999216 1 1 0.999216
1.00001 1 1.00087 0.999142
0.999537 1 1 0.999537
0.999428 1.00015 1 0.999281
0.999421 1 1 0.999421
0.999775 1 1.00047 0.999301
1.00079 1.00166 0.99974 0.999383
1.00003 1.00087 1 0.999166
1.00137 1 1.00229 0.999078
0.999449 1 1 0.999449
1.00817 1.00947 0.999383 0.999328
0.999359 1 1 0.999359
1.00109 1 1.0019 0.999185
0.998838 1.00243 0.997225 0.99919
1.00105 1 1.00202 0.999032
1.00633 1.00918 0.997941 0.999232
0.999568 1 1 0.999568
0.999492 1 1 0.999492
0.99944 1 1 0.99944
0.999851 1 1 0.999851
0.999695 1 1 0.999695
0.999615 1 1 0.999615
0.999501 1 1 0.999501
0.99985 1 1 0.99985
0.999706 1 1 0.999706
0.999457 1 1 0.999457
0.999613 1 1 0.999613
0.999519 1 1 0.999519
0.999439 1 1 0.999439
0.999545 1 1 0.999545
0.999622 1 1 0.999622
0.999695 1 1 0.999695
0.999826 1 1 0.999826
0.999733 1 1 0.999733
0.999826 1 1 0.999826
0.99999 1 1 0.99999
0.999991 1 1 0.999991
1 1 1 1
0.999992 1 1 0.999992
1 1 1 1
1 1 1 1
1 1 1 1
1 1 1 1
1 1 1 1
1 1 1 1
0.999998 1 1 0.999998
1 1 1 1
1 1 1 1
1 1 1 1
1 1 1 1
1 1 1 1
1 1 1 1
0.999389 1.0001 1 0.999289
0.999939 1.00079 1 0.999149
0.999991 1.00088 1 0.999115
1.00009 1.00094 1 0.999147
0.999872 1.00067 1 0.9992
0.99943 1.00013 1 0.999296
1.00058 1.00136 1 0.999221
1.00539 1.01078 0.99527 0.999402
1.00758 1.00851 0.99968 0.999396
0.999905 1 1 0.999905
0.999385 1.00027 1 0.999114
0.999605 1.0005 1 0.999109
1.00087 1.00155 1 0.999322
0.999496 1 1 0.999496
1.00046 1 1.00124 0.999212
0.999254 1 1.00012 0.999136
0.999803 1.00037 1 0.999435
0.99948 1 1 0.99948
0.999481 1 1 0.999481
0.999364 1 1 0.999364
0.999991 1 1 0.999991
0.999518 1 1 0.999518
0.999857 1 1 0.999857
0.999651 1 1 0.999651
0.999857 1 1 0.999857
0.999882 1.00074 1 0.999142
0.999885 1 1 0.999885
0.999853 1 1 0.999853
0.999737 1 1 0.999737
1.00124 1.00205 1 0.999194
1.00101 1.00207 0.999469 0.999473
0.999732 1 1.00029 0.999438