# vtk DataFile Version 2.0
Wound Healing Simulation
ASCII
DATASET UNSTRUCTURED_GRID
POINTS 3012 float
69.9759 18.75 4
67.2507 60.3285 4
69.976 18.75 2
73.0099 25.446 4
71.1327 20.9142 4
68.6801 16.6661 4
67.8275 19.9254 3.98686
67.2507 60.3286 2
71.1327 54.0858 4
68.6801 58.3339 4
65.6939 62.2254 4
65.3139 59.0034 3.98786
74.6784 42.3946 4
73.7221 47.2057 4
69.9759 18.75 0
73.0099 25.446 2
68.6801 16.6661 2
71.1327 20.9142 2
67.828 19.9272 2
74.6792 32.6053 4
73.7222 27.7943 4
72.1454 23.1494 4
70.6155 26.2223 3.98554
68.8876 21.9586 3.9865
67.2507 14.6715 4
66.639 17.97 3.98748
65.8023 21.0227 3.98097
67.2507 60.3285 0
71.1327 54.0858 2
68.6801 58.3339 2
65.694 62.2255 2
65.3146 59.0025 2
72.1454 51.8506 4
69.9759 56.25 4
68.8382 53.1128 3.98601
64.0165 64.0165 4
66.6125 57.1354 3.98753
63.8873 60.7683 3.98932
63.5047 57.7775 3.98289
60.3285 67.2507 4
74.6792 42.3947 2
73.7222 47.2057 2
74.9194 39.9526 4
74.2788 44.8158 4
72.1689 42.0856 3.98378
73.0099 49.554 4
71.2505 46.5976 3.98509
73.0099 25.446 0
71.1327 20.9142 0
68.6801 16.6661 0
67.8275 19.9254 0.0131425
74.6792 32.6053 2
73.7222 27.7943 2
67.2508 14.6715 2
72.1455 23.1494 2
70.6155 26.223 2
66.6397 17.9712 2
68.8878 21.9604 2
65.8023 21.0222 2
74.9197 35.0474 4
74.2794 30.1841 4
72.1856 32.9434 3.98425
71.2794 28.4322 3.98547
69.8172 24.061 3.98604
68.35 26.952 3.97707
66.7671 22.9324 3.97942
65.694 12.7746 4
65.3255 16.1008 3.98858
64.7191 19.1901 3.98245
63.8945 22.0307 3.97752
71.1327 54.0858 0
65.6939 62.2254 0
68.6801 58.3339 0
65.3139 59.0034 0.0121387
72.1455 51.8506 2
69.9759 56.25 2
68.8385 53.1109 2
64.0165 64.0165 2
66.6133 57.1339 2
63.8878 60.7679 2
63.5049 57.7783 2
62.2254 65.694 4
58.8949 65.4156 3.99262
69.7705 50.988 3.98557
67.7856 55.1681 3.98688
66.6539 52.2106 3.97885
62.3374 62.4295 3.99095
64.6659 56.0361 3.98265
62.2061 59.4109 3.98356
61.8296 56.6899 3.98011
58.3339 68.6801 4
60.3285 67.2508 2
73.7221 47.2057 0
74.6784 42.3946 0
74.9197 39.9526 2
74.2794 44.8159 2
72.1688 42.0857 2
73.0099 49.554 2
71.2505 46.5974 2
75 37.5 4
72.4059 39.8023 3.98324
71.7835 44.3528 3.98456
69.8061 41.7899 3.97561
70.5765 48.8127 3.98536
68.9154 46.0151 3.97661
74.6792 32.6053 0
73.7222 27.7943 0
67.2507 14.6715 0
72.1454 23.1494 0
70.6155 26.2223 0.014457
68.8876 21.9586 0.0135004
66.639 17.97 0.0125217
65.8023 21.0227 0.0190283
74.9197 35.0474 2
74.2794 30.1841 2
72.1854 32.9434 2
71.2794 28.4323 2
65.694 12.7745 2
65.3261 16.1012 2
69.8173 24.0622 2
68.3499 26.9522 2
64.7194 19.1892 2
66.7669 22.9323 2
63.8945 22.03 2
72.4137 35.2242 3.98335
71.805 30.6766 3.98521
69.8422 33.2686 3.97604
68.9694 29.0385 3.97724
67.615 24.9122 3.97797
66.1986 27.6342 3.97383
64.0165 10.9835 4
64.7628 23.8276 3.97591
63.8915 14.3245 3.98977
63.5179 17.4401 3.98404
62.9149 20.3131 3.97886
62.1016 22.9369 3.97561
60.6848 11.0956 3.9916
57.6133 11.441 3.98652
72.1454 51.8506 0
69.9759 56.25 0
68.8382 53.1128 0.0139852
64.0165 64.0165 0
63.8873 60.7683 0.0106828
66.6125 57.1354 0.0124666
63.5047 57.7775 0.0171129
62.2255 65.694 2
58.8952 65.4157 2
69.7707 50.9866 2
67.7863 55.1662 2
66.6537 52.2106 2
62.3378 62.4292 2
64.6661 56.0369 2
62.2062 59.4117 2
61.8298 56.6909 2
60.6696 63.9786 3.99187
57.0256 66.7364 3.9932
57.5589 63.6964 3.98724
67.5112 50.1773 3.97742
65.7071 54.1762 3.98097
64.5437 51.3887 3.97497
60.7753 60.9441 3.98468
62.8278 55.0754 3.97996
60.6633 58.1688 3.9803
60.3358 55.7964 3.97896
56.25 69.9759 4
58.3339 68.6801 2
60.3285 67.2507 0
58.9219 9.65397 3.99226
62.2254 9.30607 4
73.0099 49.554 0
74.2788 44.8158 0
71.2505 46.5976 0.014905
72.1689 42.0856 0.0162232
74.9194 39.9526 0
75 37.5 2
72.4058 39.8024 2
71.7835 44.3527 2
69.806 41.7899 2
70.5766 48.8119 2
68.9153 46.0149 2
72.4892 37.5121 3.98318
70.0425 39.6576 3.97452
69.4331 43.9078 3.97633
67.6002 41.4987 3.97223
68.2693 48.1075 3.97688
66.7141 45.4416 3.9734
74.9197 35.0474 0
74.2794 30.1841 0
72.1856 32.9434 0.0157529
71.2794 28.4322 0.0145313
65.694 12.7746 0
65.3255 16.1008 0.0114216
69.8172 24.061 0.0139571
68.35 26.952 0.022932
66.7671 22.9324 0.0205795
64.7191 19.1901 0.0175503
63.8945 22.0307 0.0224828
72.4137 35.2241 2
71.805 30.6765 2
69.8422 33.2688 2
68.9694 29.0387 2
64.0165 10.9835 2
63.8919 14.3248 2
63.5182 17.4392 2
67.6148 24.9123 2
66.1986 27.634 2
62.9152 20.3122 2
64.7626 23.8272 2
62.1017 22.9364 2
60.6852 11.0959 2
57.6134 11.4403 2
70.0593 35.3922 3.97489
69.4702 31.1497 3.97705
67.6586 33.5907 3.97254
66.7768 29.622 3.97395
65.5289 25.6983 3.97455
64.1508 28.254 3.9729
62.3427 12.6527 3.99075
62.8638 24.6334 3.97413
62.2023 15.7776 3.98467
61.8208 18.6753 3.98071
61.2269 21.3328 3.97649
60.4348 23.7198 3.97494
59.2476 12.7724 3.98498
55.8752 10.2277 3.98796
56.4066 13.1039 3.98332
69.7705 50.988 0.0144278
62.2254 65.694 0
58.8949 65.4156 0.00738109
67.7856 55.1681 0.0131196
66.6539 52.2106 0.021151
62.3374 62.4295 0.00904949
62.2061 59.4109 0.0164407
64.6659 56.0361 0.0173522
61.8296 56.6899 0.0198947
60.67 63.9785 2
57.0258 66.7365 2
57.5589 63.6972 2
67.511 50.1771 2
65.7072 54.1766 2
64.5436 51.3891 2
60.7754 60.945 2
62.8281 55.0763 2
60.6634 58.1697 2
60.3361 55.7972 2
55.071 67.9333 3.99348
59.2207 62.3716 3.98548
55.8054 64.914 3.98894
56.3283 62.0973 3.98396
65.3366 49.4105 3.97375
63.7134 53.2978 3.9775
62.4483 50.6572 3.97295
59.3365 59.566 3.98223
61.086 54.3185 3.9789
59.295 57.0236 3.97794
59.2506 55.1944 3.98016
48.1035 68.5816 3.99027
50.9486 69.9329 3.99391
54.0858 71.1327 4
56.25 69.976 2
58.3339 68.6801 0
57.059 8.3339 3.99264
60.3285 7.74928 4
58.9223 9.65402 2
62.2255 9.30602 2
70.5765 48.8127 0.0146354
71.7835 44.3528 0.015439
68.9154 46.0151 0.0233852
69.8061 41.7899 0.0243855
72.4059 39.8023 0.0167623
75 37.5 0
72.4891 37.5121 2
70.0424 39.6576 2
69.4331 43.9077 2
67.6001 41.4987 2
68.2692 48.1072 2
66.714 45.4416 2
70.1306 37.5218 3.9747
67.8361 39.513 3.97116
67.2274 43.4714 3.97301
65.5593 41.2118 3.97133
66.0732 47.4199 3.9737
64.6572 44.8514 3.97239
72.4137 35.2242 0.016655
71.805 30.6766 0.0147888
69.8422 33.2686 0.023958
68.9694 29.0385 0.0227566
64.0165 10.9835 0
63.8915 14.3245 0.0102315
63.5179 17.4401 0.0159635
67.615 24.9122 0.0220333
66.1986 27.6342 0.0261713
64.7628 23.8276 0.0240895
62.9149 20.3131 0.0211439
62.1016 22.9369 0.0243893
60.6848 11.0956 0.00839692
57.6133 11.441 0.0134794
70.0593 35.3924 2
69.4703 31.1498 2
67.6586 33.5907 2
66.7768 29.6219 2
62.343 12.653 2
62.2023 15.777 2
61.8211 18.6742 2
65.5288 25.698 2
64.1508 28.2538 2
61.2272 21.332 2
62.8637 24.6331 2
60.435 23.7194 2
59.2476 12.7718 2
56.4065 13.103 2
55.8752 10.2269 2
67.8725 35.5478 3.97162
67.2697 31.6217 3.97367
65.7013 33.9267 3.97131
64.6683 30.1902 3.9728
63.5433 26.4121 3.97304
62.2621 28.7752 3.97309
60.7772 14.2169 3.98457
61.0519 25.3328 3.9734
60.6177 17.1179 3.98232
60.2308 19.8055 3.9785
59.6708 22.2485 3.97487
58.9872 24.3114 3.97579
54.0382 9.13114 3.98856
57.9121 14.3228 3.98294
54.7877 12.0031 3.98464
55.314 14.6347 3.98191
67.5112 50.1773 0.022577
57.0256 66.7364 0.00680083
60.6696 63.9786 0.00813267
57.5589 63.6964 0.0127573
65.7071 54.1762 0.0190251
64.5437 51.3887 0.0250308
60.7753 60.9441 0.0153209
60.6633 58.1688 0.0197008
62.8278 55.0754 0.0200428
60.3358 55.7964 0.0210428
55.0712 67.9334 2
59.2207 62.3725 2
55.8053 64.9147 2
56.3283 62.0982 2
65.3366 49.4107 2
63.7136 53.2985 2
62.4483 50.6575 2
59.3367 59.5671 2
61.0864 54.3193 2
59.2952 57.0243 2
59.2509 55.1951 2
53.0428 69.0012 3.99372
53.9676 66.0161 3.98957
57.8827 60.878 3.98305
54.6848 63.2139 3.98549
55.2131 60.6252 3.98228
63.1994 48.6649 3.97208
61.75 52.5825 3.97577
60.28 50.0262 3.97177
58.0221 58.2715 3.9796
59.3363 53.9581 3.97811
58.1332 55.8238 3.97601
50.1101 67.8595 3.99013
47.4641 66.586 3.98801
46.0571 69.1611 3.99046
48.1035 68.582 2
48.8028 70.7242 3.99404
50.9489 69.933 2
51.8506 72.1454 4
54.0858 71.1327 2
56.25 69.9759 0
55.1033 7.13846 3.99288
58.3339 6.31992 4
57.0594 8.33384 2
60.3286 7.74926 2
58.9219 9.65397 0.00773716
62.2254 9.30607 0
68.2693 48.1075 0.023122
69.4331 43.9078 0.0236654
66.7141 45.4416 0.0265977
67.6002 41.4987 0.0277713
70.0425 39.6576 0.0254798
72.4892 37.5121 0.0168193
70.1306 37.5219 2
67.8361 39.5131 2
67.2274 43.4714 2
65.5592 41.2119 2
66.0731 47.4199 2
64.6571 44.8515 2
67.9326 37.5225 3.97139
65.7895 39.3716 3.97043
65.1804 43.0279 3.97187
63.7597 40.932 3.97152
63.9708 46.7201 3.97263
62.8127 44.2206 3.97249
70.0593 35.3922 0.0251119
69.4702 31.1497 0.0229482
67.6586 33.5907 0.0274593
66.7768 29.622 0.0260481
62.3427 12.6527 0.00925359
62.2023 15.7776 0.0153349
61.8208 18.6753 0.0192895
65.5289 25.6983 0.0254482
64.1508 28.254 0.0270989
62.8638 24.6334 0.0258732
61.2269 21.3328 0.0235074
60.4348 23.7198 0.0250591
59.2476 12.7724 0.0150209
56.4066 13.1039 0.016682
55.8752 10.2277 0.0120423
67.8725 35.5478 2
67.2699 31.6216 2
65.7014 33.9266 2
64.6683 30.1901 2
60.7772 14.2164 2
60.6177 17.117 2
60.2313 19.8044 2
63.5432 26.4117 2
62.2622 28.7751 2
59.6712 22.2478 2
61.0519 25.3325 2
58.9874 24.3111 2
57.9119 14.322 2
55.3139 14.6338 2
54.0382 9.13055 2
54.7877 12.0022 2
65.8787 35.667 3.97061
65.1914 32.1526 3.97222
64.2881 34.2495 3.97169
62.6012 30.6334 3.97258
61.6563 27.0691 3.97218
60.8556 29.1364 3.97316
59.3134 15.6596 3.98288
59.3376 25.7894 3.97551
59.1295 18.3441 3.98103
58.7486 20.8423 3.97614
58.294 23.0818 3.97361
57.9766 24.6557 3.97654
52.1127 8.1498 3.98892
53.0585 11.0096 3.98553
56.6786 15.7314 3.98204
53.8105 13.6695 3.98307
54.3781 15.9859 3.98164
55.071 67.9333 0.00652477
65.3366 49.4105 0.0262514
55.8054 64.914 0.0110643
59.2207 62.3716 0.0145198
56.3283 62.0973 0.0160388
63.7134 53.2978 0.0225039
62.4483 50.6572 0.0270477
59.3365 59.566 0.01777
59.295 57.0236 0.0220602
61.086 54.3185 0.0211012
59.2506 55.1944 0.0198422
53.043 69.0013 2
53.9675 66.0167 2
57.8827 60.8789 2
54.6847 63.2148 2
55.2131 60.6264 2
63.1994 48.6651 2
61.7503 52.5831 2
60.28 50.0265 2
58.0224 58.2725 2
59.3368 53.9588 2
58.1336 55.8245 2
52.0712 67.0025 3.98993
52.954 64.2241 3.98676
56.6508 59.4983 3.9816
[...]
POINT_DATA 3012
SCALARS rho_c_phif_kappa float 4
LOOKUP_TABLE default
1000 0 1.00069 0.247421
1000 0 1.00062 0.24763
1000 0 1.00069 0.247224
1000 0 1.00069 0.247453
1000 0 1.00069 0.247401
1000 0 1.00069 0.247412
1005.02 5.7736e-09 1.00074 0.247232
1000 0 1.00062 0.247616
1000 0 1.00063 0.247435
1000 0 1.00062 0.247476
1000 0 1.00069 0.247139
1005.02 5.70141e-09 1.00078 0.247049
1000 0 1.00069 0.247509
1000 0 1.00069 0.247424
1000 0 1.00069 0.247036
1000 0 1.00069 0.24736
1000 0 1.00069 0.247197
1000 0 1.00069 0.247242
1005.03 5.78019e-09 1.00074 0.247335
1000 0 1.00063 0.247669
1000 0 1.00069 0.247531
1000 0 1.00069 0.247403
1005 5.80864e-09 1.00074 0.247338
1005.02 5.78934e-09 1.00074 0.247288
1000 0 1.00069 0.247339
1005.04 5.75696e-09 1.00074 0.247149
1004.63 5.41451e-09 1.00078 0.247274
1000 0 1.00062 0.247595
1000 0 1.00066 0.247332
1000 0 1.00066 0.247326
1000 0 1.00062 0.247626
1005.02 5.70731e-09 1.00078 0.247062
1000 0 1.00069 0.247201
1000 0 1.00069 0.247136
1005.02 5.79371e-09 1.00075 0.247334
1000 0 1.00062 0.247569
1005.02 5.73137e-09 1.00075 0.247281
1005.04 5.68328e-09 1.00078 0.247155
1004.64 5.44285e-09 1.00078 0.247296
1000 0 1.00062 0.247721
1000 0 1.00063 0.247686
1000 0 1.00066 0.247525
1000 0 1.00063 0.247715
1000 0 1.00069 0.247522
1004.97 5.81404e-09 1.00078 0.247436
1000 0 1.00063 0.247526
1005 5.82498e-09 1.00075 0.247416
1000 0 1.00069 0.247279
1000 0 1.00069 0.247083
1000 0 1.00069 0.246993
1005.02 5.7736e-09 1.00074 0.247432
1000 0 1.00066 0.247704
1000 0 1.00069 0.24747
1000 0 1.00069 0.247154
1000 0 1.00069 0.247279
1004.98 5.81436e-09 1.00074 0.247375
1005.04 5.76312e-09 1.00074 0.247257
1005.02 5.79571e-09 1.00074 0.247376
1004.63 5.41249e-09 1.00078 0.247241
1000 0 1.00063 0.247708
1000 0 1.00069 0.247601
1004.97 5.8067e-09 1.00074 0.247454
1004.99 5.81187e-09 1.00074 0.247383
1005.01 5.80185e-09 1.00074 0.247311
1004.61 5.38088e-09 1.00078 0.247128
1004.62 5.40247e-09 1.00078 0.247241
1000 0 1.00069 0.247275
1005.05 5.74074e-09 1.00074 0.247105
1004.63 5.4265e-09 1.00078 0.247242
1004.58 5.33599e-09 1.00077 0.246758
1000 0 1.00063 0.247547
1000 0 1.00062 0.247605
1000 0 1.00062 0.247595
1005.02 5.70141e-09 1.00078 0.247076
1000 0 1.00063 0.247506
1000 0 1.00062 0.247566
1005.02 5.80014e-09 1.00078 0.247237
1000 0 1.00066 0.247343
1005.01 5.73772e-09 1.00078 0.247116
1005.04 5.68811e-09 1.00076 0.247209
1004.64 5.44074e-09 1.00078 0.247306
1000 0 1.00062 0.247688
1005.13 5.68312e-09 1.00078 0.247199
1005.02 5.81285e-09 1.00078 0.247374
1005.02 5.76524e-09 1.00078 0.247307
1004.62 5.39854e-09 1.00078 0.247164
1005.07 5.67371e-09 1.00075 0.247289
1004.64 5.43249e-09 1.00078 0.247289
1004.64 5.44851e-09 1.00078 0.247294
1004.59 5.35025e-09 1.00078 0.247111
1000 0 1.00062 0.247752
1000 0 1.00062 0.247718
1000 0 1.00063 0.247578
1000 0 1.00063 0.247679
1000 0 1.00063 0.247708
1000 0 1.00066 0.247591
1004.95 5.82079e-09 1.00076 0.247406
1000 0 1.00066 0.247434
1004.98 5.8306e-09 1.00076 0.247385
1000 0 1.00063 0.247728
1004.96 5.80442e-09 1.00078 0.247376
1004.99 5.82124e-09 1.00074 0.247422
1004.61 5.37317e-09 1.00077 0.246917
1005.01 5.8235e-09 1.00075 0.247333
1004.61 5.37498e-09 1.00077 0.247108
1000 0 1.00069 0.247508
1000 0 1.00069 0.247425
1000 0 1.00069 0.246961
1000 0 1.00069 0.247159
1005 5.80864e-09 1.00074 0.247406
1005.02 5.78934e-09 1.00074 0.24746
1005.04 5.75696e-09 1.00074 0.247362
1004.63 5.41451e-09 1.00078 0.247208
1000 0 1.00063 0.247695
1000 0 1.00069 0.247556
1004.95 5.8135e-09 1.00076 0.247403
1004.97 5.81759e-09 1.00074 0.247407
1000 0 1.00066 0.247331
1005.05 5.74566e-09 1.00074 0.247217
1005 5.80775e-09 1.00074 0.247374
1004.61 5.37906e-09 1.00078 0.247092
1004.63 5.42453e-09 1.00078 0.247217
1004.62 5.40038e-09 1.00078 0.247227
1004.58 5.33651e-09 1.00077 0.246754
1004.95 5.80201e-09 1.00078 0.247441
1004.98 5.81128e-09 1.00074 0.247405
1004.61 5.37571e-09 1.00078 0.246975
1004.61 5.37516e-09 1.00078 0.24706
1004.62 5.39091e-09 1.00078 0.247171
1004.55 5.31072e-09 1.00077 0.246584
1000 0 1.00062 0.247619
1004.57 5.32763e-09 1.00077 0.246683
1005.07 5.72494e-09 1.00078 0.247044
1004.63 5.43533e-09 1.00078 0.247259
1004.58 5.34513e-09 1.00077 0.246827
1004.59 5.35166e-09 1.00077 0.246289
1005.12 5.71048e-09 1.00078 0.24722
1004.6 5.43706e-09 1.00078 0.247657
1000 0 1.00063 0.247518
1000 0 1.00062 0.247586
1005.02 5.79371e-09 1.00078 0.247243
1000 0 1.00062 0.24764
1005.04 5.68328e-09 1.00078 0.247081
1005.02 5.73137e-09 1.00078 0.247124
1004.64 5.44285e-09 1.00078 0.247315
1000 0 1.00062 0.247684
1005.12 5.68598e-09 1.00078 0.247194
1005.01 5.81869e-09 1.00076 0.247376
1005.02 5.77171e-09 1.00076 0.247309
1004.62 5.39656e-09 1.00078 0.247187
1005.06 5.67758e-09 1.00078 0.247118
1004.64 5.43032e-09 1.00078 0.247311
1004.64 5.44684e-09 1.00078 0.247302
1004.59 5.35046e-09 1.00078 0.2471
1005.1 5.67563e-09 1.00078 0.247171
1005.16 5.69185e-09 1.00078 0.247179
1004.61 5.44285e-09 1.00078 0.247585
1004.61 5.38697e-09 1.00077 0.24717
1004.63 5.41706e-09 1.00078 0.247203
1004.57 5.32558e-09 1.00077 0.246638
1004.63 5.44846e-09 1.00078 0.247437
1004.58 5.34562e-09 1.00077 0.246978
1004.59 5.35646e-09 1.00078 0.247088
1004.61 5.36791e-09 1.00078 0.246703
1000 0 1.00062 0.247778
1000 0 1.00062 0.247747
1000 0 1.00062 0.247714
1005.15 5.71264e-09 1.00078 0.2472
1000 0 1.00062 0.247664
1000 0 1.00063 0.247534
1000 0 1.00063 0.247626
1005 5.82498e-09 1.00078 0.247374
1004.97 5.81404e-09 1.00078 0.247416
1000 0 1.00063 0.24772
1000 0 1.00063 0.247724
1004.94 5.8118e-09 1.00078 0.247397
1004.97 5.82729e-09 1.00076 0.247397
1004.61 5.3712e-09 1.00077 0.246922
1005 5.82893e-09 1.00078 0.247315
1004.61 5.37314e-09 1.00077 0.2471
1004.96 5.7986e-09 1.00078 0.247413
1004.61 5.37145e-09 1.00077 0.246839
1004.61 5.37471e-09 1.00077 0.247022
1004.55 5.30108e-09 1.00077 0.246496
1004.61 5.37731e-09 1.00077 0.247157
1004.55 5.30906e-09 1.00077 0.246605
1000 0 1.00063 0.247703
1000 0 1.00069 0.247528
1004.97 5.8067e-09 1.00077 0.247464
1004.99 5.81187e-09 1.00074 0.247425
1000 0 1.00062 0.247504
1005.05 5.74074e-09 1.00075 0.247334
1005.01 5.80185e-09 1.00074 0.247434
1004.61 5.38088e-09 1.00078 0.247056
1004.62 5.40247e-09 1.00078 0.247217
1004.63 5.4265e-09 1.00078 0.24719
1004.58 5.33599e-09 1.00077 0.246749
1004.93 5.80951e-09 1.00078 0.247419
1004.96 5.81728e-09 1.00074 0.247436
1004.62 5.37377e-09 1.00078 0.246968
1004.61 5.37336e-09 1.00078 0.247065
1000 0 1.00062 0.247626
1005.07 5.72909e-09 1.00076 0.247165
1004.63 5.43333e-09 1.00078 0.247261
1004.62 5.38892e-09 1.00078 0.247148
1004.55 5.31106e-09 1.00077 0.246544
1004.58 5.34558e-09 1.00077 0.246813
1004.57 5.32807e-09 1.00077 0.246694
1004.59 5.35183e-09 1.00077 0.246294
1005.11 5.71386e-09 1.00078 0.247192
1004.6 5.43559e-09 1.00078 0.247621
1004.61 5.37303e-09 1.00077 0.246877
1004.61 5.37526e-09 1.00078 0.247044
1004.55 5.30187e-09 1.00077 0.246567
1004.55 5.306e-09 1.00077 0.246516
1004.56 5.3194e-09 1.00077 0.246604
1004.57 5.32571e-09 1.00077 0.246156
1005.09 5.71383e-09 1.00078 0.24715
1004.58 5.34269e-09 1.00077 0.246202
1004.63 5.4389e-09 1.00078 0.247404
1004.59 5.35352e-09 1.00078 0.246996
1004.6 5.36047e-09 1.00077 0.246379
1004.58 5.34382e-09 1.00077 0.245802
1004.61 5.43824e-09 1.00078 0.247589
1004.59 5.43404e-09 1.00078 0.247717
1004.6 5.35536e-09 1.00078 0.247477
1005.02 5.81285e-09 1.00078 0.247304
1000 0 1.00062 0.24768
1005.13 5.68312e-09 1.00078 0.247181
1005.02 5.76524e-09 1.00078 0.24718
1004.62 5.39854e-09 1.00078 0.247207
1005.07 5.67371e-09 1.00078 0.247156
1004.64 5.44851e-09 1.00078 0.247313
1004.64 5.43249e-09 1.00078 0.247331
1004.59 5.35025e-09 1.00078 0.247091
1005.09 5.67881e-09 1.00078 0.247187
1005.16 5.69444e-09 1.00078 0.247159
1004.61 5.44135e-09 1.00078 0.247612
1004.61 5.38506e-09 1.00077 0.247174
1004.63 5.415e-09 1.00078 0.247234
1004.57 5.32612e-09 1.00077 0.246637
1004.63 5.44687e-09 1.00078 0.247441
1004.59 5.34584e-09 1.00077 0.246992
1004.59 5.35685e-09 1.00078 0.247091
1004.61 5.36784e-09 1.00078 0.246665
1005.19 5.70198e-09 1.00078 0.247145
1004.62 5.44513e-09 1.00078 0.247559
1004.6 5.43996e-09 1.00078 0.247629
1004.6 5.35746e-09 1.00078 0.247508
1004.56 5.30442e-09 1.00077 0.246633
1004.58 5.33811e-09 1.00077 0.24675
1004.58 5.34568e-09 1.00077 0.246128
1004.6 5.35966e-09 1.00078 0.247267
1004.6 5.36551e-09 1.00077 0.246465
1004.61 5.3699e-09 1.00078 0.246592
1004.6 5.36717e-09 1.00077 0.246294
1004.55 5.42941e-09 1.00078 0.247549
1005.25 5.72271e-09 1.00078 0.247095
1000 0 1.00062 0.247803
1000 0 1.00062 0.247775
1000 0 1.00062 0.247744
1005.18 5.72142e-09 1.00078 0.247145
1000 0 1.00062 0.247704
1005.14 5.71551e-09 1.00078 0.247209
1000 0 1.00062 0.247666
1005.01 5.8235e-09 1.00078 0.247347
1004.99 5.82124e-09 1.00078 0.247399
1004.61 5.37498e-09 1.00077 0.247095
1004.61 5.37317e-09 1.00077 0.246927
1004.96 5.80442e-09 1.00078 0.247415
1000 0 1.00063 0.24773
1004.93 5.80661e-09 1.00078 0.247411
1004.61 5.3694e-09 1.00077 0.246841
1004.61 5.37276e-09 1.00077 0.247023
1004.55 5.30144e-09 1.00077 0.246492
1004.61 5.37556e-09 1.00077 0.24715
1004.55 5.30933e-09 1.00077 0.246604
1004.61 5.37335e-09 1.00077 0.246831
1004.54 5.29328e-09 1.00077 0.246425
1004.55 5.30654e-09 1.00077 0.246563
1004.56 5.31778e-09 1.00077 0.246172
1004.56 5.31424e-09 1.00077 0.246631
1004.57 5.31987e-09 1.00077 0.246179
1004.95 5.80201e-09 1.00078 0.247392
1004.98 5.81128e-09 1.00074 0.24746
1004.61 5.37571e-09 1.00077 0.246959
1004.61 5.37516e-09 1.00078 0.247068
1000 0 1.00062 0.247639
1005.07 5.72494e-09 1.00075 0.247222
1004.63 5.43533e-09 1.00078 0.247262
1004.62 5.39091e-09 1.00078 0.247128
1004.55 5.31072e-09 1.00077 0.246504
1004.57 5.32763e-09 1.00077 0.246702
1004.58 5.34513e-09 1.00077 0.246798
1004.59 5.35166e-09 1.00077 0.246299
1005.12 5.71048e-09 1.00078 0.247174
1004.6 5.43706e-09 1.00078 0.24759
1004.62 5.37092e-09 1.00077 0.246875
1004.62 5.37353e-09 1.00078 0.247039
1004.55 5.30219e-09 1.00077 0.246549
1004.55 5.30629e-09 1.00077 0.246539
1005.08 5.71761e-09 1.00078 0.24712
1004.63 5.43712e-09 1.00078 0.247394
1004.59 5.3537e-09 1.00078 0.247021
1004.56 5.31983e-09 1.00077 0.24661
1004.57 5.32584e-09 1.00077 0.246119
1004.6 5.36072e-09 1.00077 0.246347
1004.58 5.34284e-09 1.00077 0.246201
1004.58 5.34407e-09 1.00077 0.245788
1004.61 5.43674e-09 1.00078 0.247583
1004.6 5.35564e-09 1.00078 0.247492
1004.59 5.43259e-09 1.00078 0.247675
1004.54 5.29612e-09 1.00077 0.246492
1004.55 5.30166e-09 1.00077 0.246574
1004.56 5.31509e-09 1.00077 0.246271
1004.56 5.31614e-09 1.00077 0.246143
1004.57 5.33183e-09 1.00077 0.246091
1004.56 5.31421e-09 1.00077 0.245801
1004.62 5.43926e-09 1.00078 0.247505
1004.57 5.33482e-09 1.00077 0.245725
1004.59 5.35721e-09 1.00078 0.247295
1004.61 5.36728e-09 1.00078 0.246512
1004.59 5.3575e-09 1.00077 0.245803
1004.58 5.33829e-09 1.00077 0.245312
1004.58 5.42991e-09 1.00078 0.247743
1004.6 5.35507e-09 1.00078 0.247506
1004.6 5.35629e-09 1.00078 0.247553
1004.61 5.3779e-09 1.00078 0.247193
1004.61 5.38697e-09 1.00077 0.247178
1005.16 5.69185e-09 1.00078 0.247134
1005.1 5.67563e-09 1.00078 0.247211
1004.61 5.44285e-09 1.00078 0.247646
1004.63 5.41706e-09 1.00078 0.247262
1004.57 5.32558e-09 1.00077 0.246635
1004.63 5.44846e-09 1.00078 0.247441
1004.59 5.35646e-09 1.00078 0.247091
1004.58 5.34562e-09 1.00077 0.247009
1004.61 5.36791e-09 1.00078 0.246628
1005.19 5.70443e-09 1.00078 0.247126
1004.62 5.4436e-09 1.00078 0.247569
1004.6 5.43863e-09 1.00078 0.247659
1004.6 5.35754e-09 1.00078 0.247503
1004.56 5.30479e-09 1.00077 0.246629
1004.58 5.33858e-09 1.00077 0.246754
1004.58 5.34604e-09 1.00077 0.246124
1004.6 5.35989e-09 1.00078 0.247265
1004.6 5.3655e-09 1.00077 0.24649
1004.61 5.37022e-09 1.00078 0.246584
1004.6 5.3672e-09 1.00077 0.246332
1005.22 5.71135e-09 1.00078 0.24712
1004.58 5.43647e-09 1.00078 0.247661
1004.6 5.3579e-09 1.00078 0.247459
1004.6 5.35827e-09 1.00078 0.247606
1004.62 5.37797e-09 1.00078 0.247148
1004.58 5.3953e-09 1.00077 0.246177
1004.59 5.3447e-09 1.00077 0.246179
1004.58 5.3538e-09 1.00077 0.245582
1004.61 5.37059e-09 1.00078 0.246754
1004.6 5.35873e-09 1.00077 0.245896
1004.61 5.38183e-09 1.00078 0.246115
1004.56 5.43199e-09 1.00078 0.247595
1004.61 5.3569e-09 1.00078 0.247881
1004.54 5.42578e-09 1.00078 0.247514
1004.55 5.42836e-09 1.00078 0.247555
1005.28 5.73403e-09 1.00075 0.247265
1005.25 5.72499e-09 1.00077 0.247212
1000 0 1.00069 0.247448
1000 0 1.00062 0.2478
1000 0 1.00062 0.247773
1005.22 5.73394e-09 1.00078 0.247115
1000 0 1.00062 0.247738
1005.18 5.72385e-09 1.00078 0.247173
1000 0 1.00062 0.247706
1005.15 5.71264e-09 1.00078 0.247211
1000 0 1.00062 0.247669
1004.61 5.37731e-09 1.00077 0.247144
1004.61 5.37471e-09 1.00077 0.247023
1004.55 5.30906e-09 1.00077 0.246602
1004.55 5.30108e-09 1.00077 0.246488
1004.61 5.37145e-09 1.00077 0.246843
1004.96 5.7986e-09 1.00078 0.247399
1004.62 5.37112e-09 1.00077 0.246829
1004.54 5.29364e-09 1.00077 0.246423
1004.55 5.30678e-09 1.00077 0.24656
1004.56 5.31786e-09 1.00077 0.246155
1004.56 5.31459e-09 1.00077 0.246627
1004.57 5.31972e-09 1.00077 0.246177
1004.54 5.28255e-09 1.00077 0.246417
1004.56 5.32335e-09 1.00077 0.246155
1004.56 5.31114e-09 1.00077 0.246165
1004.55 5.32343e-09 1.00077 0.245921
1004.57 5.31817e-09 1.00077 0.246193
1004.56 5.33278e-09 1.00077 0.245756
1004.61 5.37303e-09 1.00077 0.246875
1004.61 5.37526e-09 1.00078 0.247031
1004.55 5.30187e-09 1.00077 0.246531
1004.55 5.306e-09 1.00077 0.246563
1005.09 5.71383e-09 1.00078 0.247093
1004.63 5.4389e-09 1.00078 0.247388
1004.59 5.35352e-09 1.00078 0.247049
1004.56 5.3194e-09 1.00077 0.246617
1004.57 5.32571e-09 1.00077 0.246081
1004.58 5.34269e-09 1.00077 0.2462
1004.6 5.36047e-09 1.00077 0.246315
1004.58 5.34382e-09 1.00077 0.245772
1004.61 5.43824e-09 1.00078 0.247572
1004.6 5.35536e-09 1.00078 0.247504
1004.59 5.43404e-09 1.00078 0.247639
1004.54 5.29649e-09 1.00077 0.246479
1004.55 5.30181e-09 1.00077 0.246563
1004.56 5.31508e-09 1.00077 0.246252
1004.56 5.31595e-09 1.00077 0.246152
1004.62 5.43765e-09 1.00078 0.247514
1004.59 5.35714e-09 1.00078 0.247297
1004.61 5.3674e-09 1.00078 0.246535
1004.57 5.33186e-09 1.00077 0.246122
1004.56 5.31393e-09 1.00077 0.245754
1004.59 5.35787e-09 1.00077 0.245769
1004.57 5.33478e-09 1.00077 0.245741
1004.58 5.33821e-09 1.00077 0.245286
1004.59 5.35523e-09 1.00078 0.24751
1004.61 5.37804e-09 1.00078 0.247196
1004.58 5.42856e-09 1.00078 0.247718
1004.6 5.35622e-09 1.00078 0.24757
1004.56 5.3284e-09 1.00077 0.246219
1004.56 5.32683e-09 1.00077 0.246219
1004.56 5.33416e-09 1.00077 0.246063
1004.55 5.31812e-09 1.00077 0.245865
1004.57 5.33572e-09 1.00077 0.245651
1004.56 5.31515e-09 1.00077 0.245425
1004.59 5.35647e-09 1.00078 0.247458
1004.57 5.34008e-09 1.00077 0.245193
1004.61 5.36961e-09 1.00078 0.246874
1004.6 5.37676e-09 1.00077 0.245966
1004.59 5.3459e-09 1.00077 0.245244
1004.58 5.34588e-09 1.00077 0.244849
1004.56 5.42645e-09 1.00078 0.247709
1004.6 5.35568e-09 1.00078 0.247717
1004.61 5.37596e-09 1.00078 0.247279
1004.62 5.37871e-09 1.00078 0.247151
1004.61 5.37468e-09 1.00078 0.247067
1005.19 5.70198e-09 1.00078 0.247107
1004.56 5.30442e-09 1.00077 0.246623
1004.6 5.43996e-09 1.00078 0.247694
1004.62 5.44513e-09 1.00078 0.247574
1004.6 5.35746e-09 1.00078 0.247498
1004.58 5.33811e-09 1.00077 0.246757
1004.58 5.34568e-09 1.00077 0.24612
1004.6 5.35966e-09 1.00078 0.247261
1004.61 5.3699e-09 1.00078 0.246572
1004.6 5.36551e-09 1.00077 0.246514
1004.6 5.36717e-09 1.00078 0.24637
1005.22 5.71372e-09 1.00078 0.247104
1004.58 5.43521e-09 1.00078 0.247679
1004.6 5.35809e-09 1.00078 0.247455
1004.6 5.35827e-09 1.00078 0.247609
1004.61 5.37773e-09 1.00078 0.247141
1004.58 5.39566e-09 1.00077 0.246175
1004.59 5.34471e-09 1.00077 0.246172
1004.58 5.35365e-09 1.00077 0.245553
1004.61 5.37071e-09 1.00078 0.246759
1004.6 5.35856e-09 1.00077 0.245958
1004.61 5.38247e-09 1.00078 0.246124
1004.57 5.43463e-09 1.00078 0.247638
1004.6 5.358e-09 1.00078 0.247731
1004.61 5.3737e-09 1.00078 0.24706
1004.62 5.37539e-09 1.00078 0.247209
1004.61 5.38016e-09 1.00078 0.246872
1004.55 5.12939e-09 1.00077 0.245795
1004.59 5.44493e-09 1.00077 0.245455
1004.57 5.21302e-09 1.00077 0.244745
1004.61 5.39433e-09 1.00078 0.246211
1004.6 5.40141e-09 1.00077 0.245581
1004.56 5.43098e-09 1.00078 0.247602
1004.6 5.35682e-09 1.00078 0.247841
1004.61 5.35698e-09 1.00078 0.247882
1004.62 5.38087e-09 1.00078 0.247624
1004.61 5.35696e-09 1.00078 0.247878
1004.53 5.42085e-09 1.00078 0.247496
1004.54 5.42486e-09 1.00078 0.247518
1005.3 5.74848e-09 1.00075 0.247249
1004.55 5.42941e-09 1.00078 0.24756
1005.28 5.73607e-09 1.00075 0.247301
1000 0 1.00069 0.247461
1005.25 5.72271e-09 1.00075 0.247292
1000 0 1.00066 0.247569
1000 0 1.00062 0.247799
1005.25 5.74706e-09 1.00078 0.247092
1005.21 5.73628e-09 1.00078 0.247135
1000 0 1.00062 0.247767
1000 0 1.00062 0.24774
1005.18 5.72142e-09 1.00078 0.247195
1000 0 1.00062 0.247707
1004.56 5.31424e-09 1.00077 0.246622
1004.55 5.30654e-09 1.00077 0.246558
1004.57 5.31987e-09 1.00077 0.246175
1004.56 5.31778e-09 1.00077 0.246138
1004.54 5.29328e-09 1.00077 0.246421
1004.61 5.37335e-09 1.00077 0.246825
1004.54 5.28313e-09 1.00077 0.246416
1004.56 5.32373e-09 1.00077 0.246154
1004.56 5.31124e-09 1.00077 0.246166
1004.55 5.32403e-09 1.00077 0.245896
1004.57 5.3185e-09 1.00077 0.246188
1004.56 5.33327e-09 1.00077 0.245736
1004.56 5.36562e-09 1.00077 0.246172
1004.56 5.34989e-09 1.00077 0.246004
1004.56 5.36055e-09 1.00077 0.245788
1004.55 5.22532e-09 1.00077 0.245762
1004.57 5.3792e-09 1.00077 0.245756
1004.55 5.22295e-09 1.00077 0.245424
1004.54 5.29612e-09 1.00077 0.246464
1004.55 5.30166e-09 1.00077 0.246553
1004.56 5.31509e-09 1.00077 0.246234
1004.56 5.31614e-09 1.00077 0.246161
1004.62 5.43926e-09 1.00078 0.247519
1004.59 5.35721e-09 1.00078 0.247298
1004.61 5.36728e-09 1.00078 0.246554
1004.57 5.33183e-09 1.00077 0.246153
1004.56 5.31421e-09 1.00077 0.245707
1004.57 5.33482e-09 1.00077 0.245757
1004.59 5.3575e-09 1.00077 0.245738
1004.58 5.33829e-09 1.00077 0.245254
1004.6 5.35507e-09 1.00078 0.247517
1004.61 5.3779e-09 1.00078 0.247202
1004.58 5.42991e-09 1.00078 0.247692
1004.6 5.35629e-09 1.00078 0.247587
1004.56 5.32889e-09 1.00077 0.246223
1004.56 5.32726e-09 1.00077 0.246221
1004.56 5.33519e-09 1.00077 0.246062
1004.55 5.31912e-09 1.00077 0.245864
1004.59 5.35642e-09 1.00078 0.247466
1004.61 5.36951e-09 1.00078 0.246907
1004.6 5.37729e-09 1.00078 0.245946
1004.57 5.33646e-09 1.00077 0.245693
1004.56 5.31664e-09 1.00077 0.245428
1004.59 5.34648e-09 1.00077 0.24524
1004.57 5.34114e-09 1.00077 0.2452
1004.58 5.34644e-09 1.00077 0.244871
1004.61 5.37573e-09 1.00078 0.247285
1004.61 5.37461e-09 1.00078 0.247067
1004.62 5.3786e-09 1.00078 0.247142
1004.56 5.42526e-09 1.00078 0.247697
1004.6 5.35565e-09 1.00078 0.24773
1004.55 5.26529e-09 1.00077 0.245985
1004.55 5.28101e-09 1.00077 0.245916
1004.55 5.28927e-09 1.00077 0.24549
1004.55 5.27953e-09 1.00077 0.245176
1004.61 5.37229e-09 1.00078 0.247208
1004.56 5.25037e-09 1.00077 0.244326
1004.61 5.39073e-09 1.00078 0.246402
1004.6 5.37644e-09 1.00077 0.245334
1004.58 5.29885e-09 1.00077 0.244695
1004.55 5.42273e-09 1.00078 0.247656
1004.6 5.35396e-09 1.00078 0.247823
1004.62 5.38029e-09 1.00078 0.247284
1004.61 5.37847e-09 1.00078 0.247136
1004.61 5.37812e-09 1.00078 0.246856
1004.61 5.37907e-09 1.00078 0.247018
1005.22 5.71135e-09 1.00078 0.247087
1004.58 5.43647e-09 1.00078 0.247697
1004.58 5.3953e-09 1.00077 0.246173
1004.6 5.35827e-09 1.00078 0.247611
1004.6 5.3579e-09 1.00078 0.247455
1004.62 5.37797e-09 1.00078 0.247136
1004.59 5.3447e-09 1.00077 0.246165
1004.58 5.3538e-09 1.00077 0.245527
1004.61 5.37059e-09 1.00078 0.246768
1004.61 5.38183e-09 1.00078 0.246134
1004.6 5.35873e-09 1.00077 0.246016
1004.57 5.43346e-09 1.00078 0.247648
1004.6 5.35798e-09 1.00078 0.247745
1004.61 5.37359e-09 1.00078 0.247067
1004.62 5.37531e-09 1.00078 0.24721
1004.61 5.3801e-09 1.00078 0.246855
1004.55 5.13032e-09 1.00077 0.245764
1004.59 5.44595e-09 1.00077 0.245474
1004.57 5.21566e-09 1.00077 0.244703
1004.61 5.39468e-09 1.00078 0.246192