# vtk DataFile Version 2.0
Wound Healing Simulation
ASCII
DATASET UNSTRUCTURED_GRID
POINTS 3012 float
69.9759 18.75 4
67.2507 60.3285 4
69.976 18.75 2
73.0099 25.446 4
71.1327 20.9142 4
68.6801 16.6661 4
67.8264 19.9138 3.99332
67.2507 60.3286 2
71.1327 54.0858 4
68.6801 58.3339 4
65.6939 62.2254 4
65.313 59.0109 3.99414
74.6784 42.3946 4
73.7221 47.2057 4
69.9759 18.75 0
73.0099 25.446 2
68.6801 16.6661 2
71.1327 20.9142 2
67.8264 19.9133 2
74.6792 32.6053 4
73.7222 27.7943 4
72.1454 23.1494 4
70.6165 26.2108 3.99185
68.8871 21.9461 3.9929
67.2507 14.6715 4
66.6377 17.9603 3.99372
65.8042 21.0037 3.98926
67.2507 60.3285 0
71.1327 54.0858 2
68.6801 58.3339 2
65.694 62.2255 2
65.3129 59.0114 2
72.1454 51.8506 4
69.9759 56.25 4
68.8379 53.1249 3.99266
64.0165 64.0165 4
66.6115 57.1447 3.99384
63.8865 60.774 3.99443
63.5045 57.7937 3.9903
60.3285 67.2507 4
74.6792 42.3947 2
73.7222 47.2057 2
74.9194 39.9526 4
74.2788 44.8158 4
72.1715 42.0914 3.99048
73.0099 49.554 4
71.252 46.6075 3.99123
73.0099 25.446 0
71.1327 20.9142 0
68.6801 16.6661 0
67.8264 19.9138 0.00667654
74.6792 32.6053 2
73.7222 27.7943 2
67.2508 14.6715 2
72.1455 23.1494 2
70.6165 26.2104 2
66.6377 17.9597 2
68.8871 21.9455 2
65.8042 21.0032 2
74.9197 35.0474 4
74.2794 30.1841 4
72.188 32.9378 3.99031
71.2808 28.4223 3.99126
69.8175 24.0484 3.99242
68.357 26.9363 3.9878
66.7709 22.9136 3.98878
65.694 12.7746 4
65.3242 16.0932 3.99405
64.7193 19.1718 3.98976
63.9014 22.0065 3.98722
71.1327 54.0858 0
65.6939 62.2254 0
68.6801 58.3339 0
65.313 59.0109 0.00586255
72.1455 51.8506 2
69.9759 56.25 2
68.8378 53.1254 2
64.0165 64.0165 2
66.6114 57.1452 2
63.8864 60.7745 2
63.5045 57.7942 2
62.2254 65.694 4
58.8937 65.4192 3.99467
69.7709 51.0002 3.99206
67.7848 55.1791 3.99334
66.6581 52.2286 3.98843
62.3366 62.4341 3.99461
64.6665 56.0535 3.98989
62.2053 59.4253 3.99074
61.832 56.7109 3.988
58.3339 68.6801 4
60.3285 67.2508 2
73.7221 47.2057 0
74.6784 42.3946 0
74.9197 39.9526 2
74.2794 44.8159 2
72.1716 42.0916 2
73.0099 49.554 2
71.2521 46.6078 2
75 37.5 4
72.4091 39.8054 3.99067
71.7856 44.3607 3.99076
69.816 41.7972 3.98705
70.5775 48.824 3.99163
68.9233 46.0283 3.9875
74.6792 32.6053 0
73.7222 27.7943 0
67.2507 14.6715 0
72.1454 23.1494 0
70.6165 26.2108 0.00814881
68.8871 21.9461 0.00710196
66.6377 17.9603 0.00627919
65.8042 21.0037 0.010737
74.9197 35.0474 2
74.2794 30.1841 2
72.188 32.9376 2
71.2809 28.422 2
65.694 12.7745 2
65.3241 16.0927 2
69.8175 24.0479 2
68.3571 26.936 2
64.7193 19.1713 2
66.771 22.9131 2
63.9014 22.0062 2
72.4168 35.2212 3.99039
71.8068 30.6687 3.99072
69.8514 33.2616 3.98687
68.9769 29.0256 3.98734
67.6207 24.8945 3.9883
66.2136 27.6153 3.98625
64.0165 10.9835 4
64.773 23.804 3.98695
63.8904 14.3188 3.99429
63.5167 17.4237 3.99024
62.9186 20.2897 3.98749
62.1143 22.908 3.98638
60.6839 11.0915 3.99451
57.6121 11.4328 3.991
72.1454 51.8506 0
69.9759 56.25 0
68.8379 53.1249 0.00734058
64.0165 64.0165 0
63.8865 60.774 0.00556683
66.6115 57.1447 0.00615761
63.5045 57.7937 0.00969651
62.2255 65.694 2
58.8936 65.4196 2
69.7709 51.0007 2
67.7847 55.1796 2
66.6581 52.229 2
62.3365 62.4346 2
64.6665 56.054 2
62.2053 59.4258 2
61.832 56.7113 2
60.6686 63.9828 3.99465
57.0241 66.7393 3.99471
57.5575 63.7041 3.99117
67.5171 50.1943 3.98799
65.7093 54.1943 3.98916
64.5544 51.4111 3.9864
60.7742 60.9562 3.99106
62.8317 55.0972 3.98778
60.6645 58.1879 3.98827
60.3407 55.8214 3.98702
56.25 69.9759 4
58.3339 68.6801 2
60.3285 67.2507 0
58.9208 9.65039 3.99456
62.2254 9.30607 4
73.0099 49.554 0
74.2788 44.8158 0
71.252 46.6075 0.00876931
72.1715 42.0914 0.00952193
74.9194 39.9526 0
75 37.5 2
72.4092 39.8055 2
71.7856 44.361 2
69.8161 41.7974 2
70.5775 48.8245 2
68.9234 46.0286 2
72.4925 37.5121 3.9903
70.0537 39.6614 3.98753
69.4418 43.9183 3.98711
67.6191 41.5068 3.98602
68.2764 48.1229 3.98777
66.7303 45.4567 3.9861
74.9197 35.0474 0
74.2794 30.1841 0
72.188 32.9378 0.00969399
71.2808 28.4223 0.00874251
65.694 12.7746 0
65.3242 16.0932 0.0059471
69.8175 24.0484 0.00758088
68.357 26.9363 0.0121987
66.7709 22.9136 0.0112189
64.7193 19.1718 0.0102386
63.9014 22.0065 0.0127768
72.4169 35.2211 2
71.8069 30.6684 2
69.8515 33.2615 2
68.977 29.0253 2
64.0165 10.9835 2
63.8904 14.3183 2
63.5167 17.4232 2
67.6208 24.8941 2
66.2138 27.6151 2
62.9187 20.2893 2
64.7731 23.8037 2
62.1145 22.9078 2
60.6838 11.0911 2
57.6121 11.4323 2
70.07 35.3885 3.98714
69.4782 31.1397 3.98703
67.6763 33.5829 3.98568
66.7921 29.607 3.98584
65.542 25.6764 3.98665
64.1745 28.2318 3.98558
62.3418 12.648 3.99443
62.8813 24.6052 3.98621
62.2005 15.7631 3.9906
61.8218 18.654 3.98787
61.2353 21.3046 3.98646
60.4541 23.6868 3.98609
59.2464 12.762 3.99094
55.8738 10.221 3.99107
56.4061 13.0921 3.98869
69.7709 51.0002 0.00794014
62.2254 65.694 0
58.8937 65.4192 0.00533214
67.7848 55.1791 0.00665543
66.6581 52.2286 0.0115749
62.3366 62.4341 0.00538896
62.2053 59.4253 0.00925959
64.6665 56.0535 0.0101091
61.832 56.7109 0.0119951
60.6685 63.9832 2
57.024 66.7397 2
57.5575 63.7046 2
67.5171 50.1947 2
65.7093 54.1947 2
64.5545 51.4114 2
60.7742 60.9567 2
62.8317 55.0976 2
60.6645 58.1883 2
60.3408 55.8217 2
55.0697 67.9357 3.99476
59.2197 62.3816 3.99113
55.8036 64.9198 3.99125
56.328 62.1079 3.98889
65.3502 49.4315 3.98618
63.7204 53.3204 3.98703
62.4666 50.6839 3.98549
59.3368 59.5821 3.98865
61.0934 54.3444 3.98683
59.2984 57.047 3.98688
59.2575 55.2223 3.98681
48.1021 68.5841 3.99144
50.9477 69.9344 3.99482
54.0858 71.1327 4
56.25 69.976 2
58.3339 68.6801 0
57.0579 8.33086 3.9946
60.3285 7.74928 4
58.9207 9.64998 2
62.2255 9.30602 2
70.5775 48.824 0.00837085
71.7856 44.3607 0.00923671
68.9233 46.0283 0.0124969
69.816 41.7972 0.0129478
72.4091 39.8054 0.00932583
75 37.5 0
72.4925 37.5121 2
70.0538 39.6614 2
69.4419 43.9185 2
67.6192 41.5068 2
68.2765 48.1232 2
66.7305 45.4569 2
70.1416 37.5218 3.98734
67.8572 39.5173 3.98657
67.2446 43.4831 3.98584
65.5877 41.2207 3.98574
66.0884 47.4382 3.98624
64.6824 44.8687 3.98565
72.4168 35.2212 0.0096138
71.8068 30.6687 0.00927715
69.8514 33.2616 0.0131263
68.9769 29.0256 0.012655
64.0165 10.9835 0
63.8904 14.3188 0.00571151
63.5167 17.4237 0.00976373
67.6207 24.8945 0.0116967
66.2136 27.6153 0.0137456
64.773 23.804 0.0130481
62.9186 20.2897 0.01251
62.1143 22.908 0.0136157
60.6839 11.0915 0.0054927
57.6121 11.4328 0.00899971
70.0701 35.3884 2
69.4783 31.1395 2
67.6764 33.5828 2
66.7923 29.6069 2
62.3418 12.6476 2
62.2005 15.7627 2
61.8218 18.6536 2
65.5422 25.6762 2
64.1747 28.2317 2
61.2353 21.3043 2
62.8814 24.605 2
60.4542 23.6866 2
59.2463 12.7616 2
56.4062 13.0917 2
55.8738 10.2206 2
67.8924 35.5435 3.98602
67.2857 31.6104 3.9856
65.728 33.9181 3.98546
64.6923 30.1732 3.98501
63.5647 26.386 3.986
62.2943 28.7502 3.98558
60.7757 14.2043 3.99083
61.0773 25.3005 3.98593
60.6171 17.0991 3.98825
60.2349 19.7798 3.98672
59.6846 22.216 3.98595
59.0124 24.275 3.9863
54.0368 9.12552 3.99113
57.9116 14.3084 3.98867
54.7872 11.9938 3.98875
55.3142 14.6203 3.98735
67.5171 50.1943 0.0120145
57.0241 66.7393 0.00528777
60.6686 63.9828 0.00535454
57.5575 63.7041 0.00882986
65.7093 54.1943 0.0108398
64.5544 51.4111 0.0135951
60.7742 60.9562 0.00893767
60.6645 58.1879 0.0117254
62.8317 55.0972 0.0122171
60.3407 55.8214 0.0129827
55.0696 67.936 2
59.2196 62.3821 2
55.8035 64.9203 2
56.328 62.1083 2
65.3503 49.4317 2
63.7205 53.3207 2
62.4668 50.6841 2
59.3368 59.5825 2
61.0935 54.3447 2
59.2984 57.0473 2
59.2576 55.2226 2
53.0416 69.003 3.9948
53.9657 66.0209 3.99133
57.8828 60.8916 3.98882
54.6839 63.2215 3.98898
55.2137 60.6382 3.98743
63.2218 48.6898 3.98555
61.7625 52.6092 3.9859
60.3068 50.0568 3.98499
58.0237 58.2912 3.98715
59.3467 53.9873 3.98635
58.1392 55.8524 3.98573
50.1084 67.8627 3.99142
47.4628 66.5895 3.98923
46.056 69.163 3.99142
48.102 68.5845 2
48.802 70.7253 3.99484
50.9476 69.9347 2
51.8506 72.1454 4
54.0858 71.1327 2
56.25 69.9759 0
55.1022 7.13591 3.99462
58.3339 6.31992 4
57.0578 8.33047 2
60.3286 7.74926 2
58.9208 9.65039 0.00544448
62.2254 9.30607 0
68.2764 48.1229 0.0122251
69.4418 43.9183 0.0128944
66.7303 45.4567 0.0139043
67.6191 41.5068 0.0139752
70.0537 39.6614 0.0124729
72.4925 37.5121 0.00969554
70.1417 37.5218 2
67.8574 39.5173 2
67.2448 43.4832 2
65.5879 41.2207 2
66.0886 47.4384 2
64.6826 44.8688 2
67.9532 37.5224 3.98658
65.8208 39.3762 3.9863
65.2067 43.041 3.9854
63.797 40.9418 3.98573
63.9948 46.7414 3.98579
62.8468 44.2398 3.98556
70.07 35.3885 0.0128586
69.4782 31.1397 0.0129718
67.6763 33.5829 0.0143172
66.7921 29.607 0.0141596
62.3418 12.648 0.00556519
62.2005 15.7631 0.00940433
61.8218 18.654 0.0121271
65.542 25.6764 0.0133488
64.1745 28.2318 0.0144203
62.8813 24.6052 0.0137883
61.2353 21.3046 0.013541
60.4541 23.6868 0.0139051
59.2464 12.762 0.0090618
56.4061 13.0921 0.0113093
55.8738 10.221 0.00892539
67.8926 35.5435 2
67.2858 31.6103 2
65.7281 33.9181 2
64.6925 30.1731 2
60.7757 14.2039 2
60.6172 17.0988 2
60.235 19.7795 2
63.5649 26.3858 2
62.2945 28.7501 2
59.6847 22.2158 2
61.0775 25.3003 2
59.0126 24.2749 2
57.9116 14.308 2
55.3142 14.6199 2
54.0368 9.1251 2
54.7872 11.9934 2
65.908 35.6623 3.98547
65.2162 32.1404 3.98497
64.3217 34.2401 3.98481
62.6342 30.6136 3.98513
61.6866 27.0394 3.98581
60.8943 29.1104 3.98561
59.3127 15.643 3.98853
59.3703 25.7543 3.98622
59.1304 18.3218 3.98709
58.7568 20.8127 3.98598
58.3138 23.0453 3.98583
58.0058 24.6167 3.98679
52.1115 8.14501 3.99111
53.0581 11.0019 3.98881
56.6786 15.7142 3.98744
53.8107 13.6581 3.98728
54.3783 15.9692 3.98673
55.0697 67.9357 0.00523632
65.3502 49.4315 0.0138157
55.8036 64.9198 0.00875293
59.2197 62.3816 0.00887051
56.328 62.1079 0.0111132
63.7204 53.3204 0.0129716
62.4666 50.6839 0.0145101
59.3368 59.5821 0.0113461
59.2984 57.047 0.0131181
61.0934 54.3444 0.01317
59.2575 55.2223 0.013194
53.0415 69.0033 2
53.9656 66.0213 2
57.8828 60.892 2
54.6839 63.2219 2
55.2137 60.6385 2
63.222 48.6899 2
61.7626 52.6095 2
60.307 50.057 2
58.0238 58.2915 2
59.3468 53.9875 2
58.1393 55.8527 2
52.0693 67.0064 3.99139
52.9529 64.2302 3.98909
[...]
POINT_DATA 3012
SCALARS rho_c_phif_kappa float 4
LOOKUP_TABLE default
1000 0 1.00004 0.231152
1000 0 1.00004 0.231197
1000 0 1.00004 0.231149
1000 0 1.00004 0.23114
1000 0 1.00004 0.231145
1000 0 1.00004 0.231159
1000.38 4.49242e-10 1.00004 0.231161
1000 0 1.00004 0.231197
1000 0 1.00004 0.231177
1000 0 1.00004 0.23119
1000 0 1.00004 0.231173
1000.38 4.4941e-10 1.00004 0.231154
1000 0 1.00004 0.231163
1000 0 1.00004 0.231124
1000 0 1.00004 0.231147
1000 0 1.00004 0.231131
1000 0 1.00004 0.231157
1000 0 1.00004 0.231141
1000.38 4.4915e-10 1.00004 0.231163
1000 0 1.00004 0.231193
1000 0 1.00004 0.231144
1000 0 1.00004 0.23114
1000.38 4.49703e-10 1.00004 0.231156
1000.38 4.49373e-10 1.00004 0.231159
1000 0 1.00004 0.231167
1000.38 4.49129e-10 1.00004 0.231163
1000.28 3.28512e-10 1.00004 0.231203
1000 0 1.00004 0.231197
1000 0 1.00004 0.231156
1000 0 1.00004 0.231174
1000 0 1.00004 0.231203
1000.38 4.49285e-10 1.00004 0.231153
1000 0 1.00004 0.23113
1000 0 1.00004 0.231148
1000.38 4.48756e-10 1.00004 0.231166
1000 0 1.00004 0.231208
1000.38 4.49235e-10 1.00004 0.231168
1000.38 4.49127e-10 1.00004 0.231157
1000.28 3.28145e-10 1.00004 0.231198
1000 0 1.00004 0.231216
1000 0 1.00004 0.231197
1000 0 1.00004 0.231151
1000 0 1.00004 0.23122
1000 0 1.00004 0.231133
1000.38 4.51331e-10 1.00004 0.231153
1000 0 1.00004 0.231169
1000.38 4.49996e-10 1.00004 0.231164
1000 0 1.00004 0.231125
1000 0 1.00004 0.231138
1000 0 1.00004 0.231155
1000.38 4.49242e-10 1.00004 0.231163
1000 0 1.00004 0.231182
1000 0 1.00004 0.231135
1000 0 1.00004 0.231165
1000 0 1.00004 0.231135
1000.38 4.49691e-10 1.00004 0.23116
1000.38 4.4902e-10 1.00004 0.231164
1000.38 4.49302e-10 1.00004 0.231161
1000.28 3.28535e-10 1.00004 0.231204
1000 0 1.00004 0.231202
1000 0 1.00004 0.231154
1000.38 4.51346e-10 1.00004 0.231165
1000.38 4.49954e-10 1.00004 0.231157
1000.38 4.49473e-10 1.00004 0.231158
1000.28 3.28713e-10 1.00004 0.2312
1000.28 3.28528e-10 1.00004 0.231204
1000 0 1.00004 0.231174
1000.38 4.48944e-10 1.00004 0.231165
1000.28 3.28481e-10 1.00004 0.2312
1000.31 3.59863e-10 1.00004 0.231233
1000 0 1.00004 0.231177
1000 0 1.00004 0.231203
1000 0 1.00004 0.231191
1000.38 4.4941e-10 1.00004 0.231152
1000 0 1.00004 0.231173
1000 0 1.00004 0.231184
1000.38 4.48674e-10 1.00004 0.231147
1000 0 1.00004 0.231193
1000.38 4.49126e-10 1.00004 0.231151
1000.38 4.48996e-10 1.00004 0.231162
1000.28 3.28165e-10 1.00004 0.231198
1000 0 1.00004 0.231212
1000.38 4.48257e-10 1.00004 0.23116
1000.38 4.47992e-10 1.00004 0.231149
1000.38 4.48987e-10 1.00004 0.231154
1000.28 3.28018e-10 1.00004 0.23121
1000.38 4.48712e-10 1.00004 0.23117
1000.28 3.2862e-10 1.00004 0.231203
1000.28 3.28573e-10 1.00004 0.231193
1000.31 3.60647e-10 1.00004 0.231231
1000 0 1.00004 0.231219
1000 0 1.00004 0.231216
1000 0 1.00004 0.231171
1000 0 1.00004 0.231188
1000 0 1.00004 0.231211
1000 0 1.00004 0.23116
1000.38 4.51399e-10 1.00004 0.231157
1000 0 1.00004 0.231146
1000.38 4.50021e-10 1.00004 0.23115
1000 0 1.00004 0.231217
1000.38 4.52337e-10 1.00004 0.231147
1000.38 4.51146e-10 1.00004 0.231165
1000.28 3.29193e-10 1.00004 0.231166
1000.38 4.49682e-10 1.00004 0.231157
1000.28 3.29167e-10 1.00004 0.231191
1000 0 1.00004 0.231163
1000 0 1.00004 0.231124
1000 0 1.00004 0.231164
1000 0 1.00004 0.231131
1000.38 4.49703e-10 1.00004 0.231163
1000.38 4.49373e-10 1.00004 0.231163
1000.38 4.49129e-10 1.00004 0.231165
1000.28 3.28512e-10 1.00004 0.231206
1000 0 1.00004 0.23121
1000 0 1.00004 0.231145
1000.38 4.51403e-10 1.00004 0.231158
1000.38 4.49974e-10 1.00004 0.23116
1000 0 1.00004 0.231186
1000.38 4.48825e-10 1.00004 0.231166
1000.38 4.49433e-10 1.00004 0.23116
1000.28 3.28752e-10 1.00004 0.231201
1000.28 3.28505e-10 1.00004 0.231202
1000.28 3.28558e-10 1.00004 0.231205
1000.31 3.59889e-10 1.00004 0.231233
1000.38 4.52148e-10 1.00004 0.231155
1000.38 4.50731e-10 1.00004 0.231159
1000.28 3.28745e-10 1.00004 0.231174
1000.28 3.28946e-10 1.00004 0.231196
1000.28 3.28811e-10 1.00004 0.231203
1000.31 3.60015e-10 1.00004 0.231215
1000 0 1.00004 0.231207
1000.31 3.59991e-10 1.00004 0.23123
1000.38 4.48792e-10 1.00004 0.231153
1000.28 3.28677e-10 1.00004 0.231196
1000.31 3.60114e-10 1.00004 0.231234
1000.3 3.51511e-10 1.00004 0.231233
1000.38 4.48764e-10 1.00004 0.231158
1000.28 3.28388e-10 1.00004 0.231187
1000 0 1.00004 0.231172
1000 0 1.00004 0.231184
1000.38 4.48756e-10 1.00004 0.231144
1000 0 1.00004 0.231208
1000.38 4.49127e-10 1.00004 0.231154
1000.38 4.49235e-10 1.00004 0.231149
1000.28 3.28145e-10 1.00004 0.231198
1000 0 1.00004 0.231212
1000.38 4.4811e-10 1.00004 0.231161
1000.38 4.48005e-10 1.00004 0.231154
1000.38 4.48883e-10 1.00004 0.231158
1000.28 3.28126e-10 1.00004 0.231211
1000.38 4.48573e-10 1.00004 0.231157
1000.28 3.28627e-10 1.00004 0.231204
1000.28 3.28575e-10 1.00004 0.231192
1000.31 3.60653e-10 1.00004 0.231232
1000.38 4.4842e-10 1.00004 0.231158
1000.38 4.48067e-10 1.00004 0.231162
1000.28 3.28634e-10 1.00004 0.231184
1000.28 3.32196e-10 1.00004 0.231208
1000.28 3.28145e-10 1.00004 0.231208
1000.31 3.63581e-10 1.00004 0.231232
1000.28 3.2881e-10 1.00004 0.231188
1000.31 3.59318e-10 1.00004 0.231231
1000.31 3.59606e-10 1.00004 0.231228
1000.3 3.50379e-10 1.00004 0.231226
1000 0 1.00004 0.231222
1000 0 1.00004 0.231219
1000 0 1.00004 0.231216
1000.38 4.48583e-10 1.00004 0.231161
1000 0 1.00004 0.231211
1000 0 1.00004 0.231169
1000 0 1.00004 0.231177
1000.38 4.49996e-10 1.00004 0.231141
1000.38 4.51331e-10 1.00004 0.23115
1000 0 1.00004 0.231203
1000 0 1.00004 0.231222
1000.38 4.52373e-10 1.00004 0.231149
1000.38 4.51173e-10 1.00004 0.231152
1000.28 3.2917e-10 1.00004 0.231167
1000.38 4.49648e-10 1.00004 0.231139
1000.28 3.29166e-10 1.00004 0.231192
1000.38 4.51679e-10 1.00004 0.231152
1000.28 3.2772e-10 1.00004 0.231155
1000.28 3.27293e-10 1.00004 0.231179
1000.31 3.58761e-10 1.00004 0.231175
1000.28 3.27135e-10 1.00004 0.231201
1000.31 3.58047e-10 1.00004 0.231207
1000 0 1.00004 0.231219
1000 0 1.00004 0.231134
1000.38 4.51346e-10 1.00004 0.231154
1000.38 4.49954e-10 1.00004 0.231164
1000 0 1.00004 0.231201
1000.38 4.48944e-10 1.00004 0.231166
1000.38 4.49473e-10 1.00004 0.231162
1000.28 3.28713e-10 1.00004 0.231201
1000.28 3.28528e-10 1.00004 0.231206
1000.28 3.28481e-10 1.00004 0.231204
1000.31 3.59863e-10 1.00004 0.231233
1000.38 4.52196e-10 1.00004 0.231152
1000.38 4.50763e-10 1.00004 0.231162
1000.28 3.28741e-10 1.00004 0.231174
1000.28 3.28968e-10 1.00004 0.231196
1000 0 1.00004 0.231206
1000.38 4.48664e-10 1.00004 0.231161
1000.28 3.2869e-10 1.00004 0.231197
1000.28 3.28834e-10 1.00004 0.231203
1000.31 3.6004e-10 1.00004 0.231215
1000.31 3.60128e-10 1.00004 0.231233
1000.31 3.60007e-10 1.00004 0.23123
1000.3 3.51516e-10 1.00004 0.231233
1000.38 4.48623e-10 1.00004 0.231158
1000.28 3.28391e-10 1.00004 0.231187
1000.28 3.2814e-10 1.00004 0.23116
1000.28 3.27996e-10 1.00004 0.231187
1000.31 3.59792e-10 1.00004 0.231182
1000.31 3.58951e-10 1.00004 0.231208
1000.31 3.59145e-10 1.00004 0.231224
1000.3 3.50419e-10 1.00004 0.231218
1000.38 4.48778e-10 1.00004 0.231155
1000.3 3.50638e-10 1.00004 0.231231
1000.28 3.28731e-10 1.00004 0.231192
1000.31 3.59482e-10 1.00004 0.231234
1000.3 3.50676e-10 1.00004 0.231231
1000.3 3.5234e-10 1.00004 0.23123
1000.28 3.28322e-10 1.00004 0.231187
1000.28 3.28461e-10 1.00004 0.231187
1000.31 3.59987e-10 1.00004 0.23123
1000.38 4.47992e-10 1.00004 0.231141
1000 0 1.00004 0.231212
1000.38 4.48257e-10 1.00004 0.231161
1000.38 4.48987e-10 1.00004 0.231147
1000.28 3.28018e-10 1.00004 0.231213
1000.38 4.48712e-10 1.00004 0.231156
1000.28 3.28573e-10 1.00004 0.231192
1000.28 3.2862e-10 1.00004 0.231204
1000.31 3.60647e-10 1.00004 0.231233
1000.38 4.48277e-10 1.00004 0.231158
1000.38 4.4792e-10 1.00004 0.231162
1000.28 3.28636e-10 1.00004 0.231184
1000.28 3.32007e-10 1.00004 0.23121
1000.28 3.28229e-10 1.00004 0.231209
1000.31 3.63316e-10 1.00004 0.231232
1000.28 3.28804e-10 1.00004 0.231187
1000.31 3.59403e-10 1.00004 0.231232
1000.31 3.59683e-10 1.00004 0.231229
1000.3 3.50477e-10 1.00004 0.231225
1000.38 4.4796e-10 1.00004 0.231164
1000.28 3.28785e-10 1.00004 0.231185
1000.28 3.28794e-10 1.00004 0.231183
1000.31 3.60119e-10 1.00004 0.231225
1000.31 3.45351e-10 1.00004 0.231232
1000.31 3.62907e-10 1.00004 0.23123
1000.3 3.33247e-10 1.00004 0.23123
1000.31 3.5924e-10 1.00004 0.231227
1000.3 3.55162e-10 1.00004 0.231222
1000.3 3.55097e-10 1.00004 0.231223
1000.3 3.57958e-10 1.00004 0.231209
1000.28 3.28301e-10 1.00004 0.231182
1000.38 4.48119e-10 1.00004 0.231166
1000 0 1.00004 0.231225
1000 0 1.00004 0.231222
1000 0 1.00004 0.231219
1000.38 4.48348e-10 1.00004 0.231163
1000 0 1.00004 0.231215
1000.38 4.48439e-10 1.00004 0.23116
1000 0 1.00004 0.231211
1000.38 4.49682e-10 1.00004 0.23114
1000.38 4.51146e-10 1.00004 0.231146
1000.28 3.29167e-10 1.00004 0.231192
1000.28 3.29193e-10 1.00004 0.231167
1000.38 4.52337e-10 1.00004 0.231152
1000 0 1.00004 0.231218
1000.38 4.51771e-10 1.00004 0.231152
1000.28 3.2781e-10 1.00004 0.231155
1000.28 3.27402e-10 1.00004 0.23118
1000.31 3.58904e-10 1.00004 0.231175
1000.28 3.2728e-10 1.00004 0.231202
1000.31 3.58209e-10 1.00004 0.231207
1000.28 3.31765e-10 1.00004 0.231153
1000.31 3.67751e-10 1.00004 0.231161
1000.31 3.66245e-10 1.00004 0.231191
1000.3 3.60179e-10 1.00004 0.231177
1000.31 3.66765e-10 1.00004 0.231223
1000.3 3.59885e-10 1.00004 0.23121
1000.38 4.52148e-10 1.00004 0.231149
1000.38 4.50731e-10 1.00004 0.231166
1000.28 3.28745e-10 1.00004 0.231174
1000.28 3.28946e-10 1.00004 0.231197
1000 0 1.00004 0.231206
1000.38 4.48792e-10 1.00004 0.231168
1000.28 3.28677e-10 1.00004 0.231198
1000.28 3.28811e-10 1.00004 0.231204
1000.31 3.60015e-10 1.00004 0.231215
1000.31 3.59991e-10 1.00004 0.23123
1000.31 3.60114e-10 1.00004 0.231232
1000.3 3.51511e-10 1.00004 0.231233
1000.38 4.48764e-10 1.00004 0.231158
1000.28 3.28388e-10 1.00004 0.231188
1000.28 3.28182e-10 1.00004 0.23116
1000.28 3.28063e-10 1.00004 0.231187
1000.31 3.59871e-10 1.00004 0.231182
1000.31 3.5904e-10 1.00004 0.231208
1000.38 4.48641e-10 1.00004 0.231155
1000.28 3.28734e-10 1.00004 0.231193
1000.31 3.59538e-10 1.00004 0.231233
1000.31 3.5922e-10 1.00004 0.231224
1000.3 3.5051e-10 1.00004 0.231219
1000.3 3.5074e-10 1.00004 0.231231
1000.3 3.50702e-10 1.00004 0.231232
1000.3 3.52416e-10 1.00004 0.23123
1000.28 3.28331e-10 1.00004 0.231188
1000.31 3.60004e-10 1.00004 0.23123
1000.28 3.28465e-10 1.00004 0.231187
1000.31 3.6405e-10 1.00004 0.231167
1000.31 3.62913e-10 1.00004 0.231198
1000.3 3.55239e-10 1.00004 0.231181
1000.3 3.54593e-10 1.00004 0.231211
1000.3 3.54217e-10 1.00004 0.231227
1000.3 3.57308e-10 1.00004 0.231224
1000.28 3.28583e-10 1.00004 0.231189
1000.3 3.56152e-10 1.00004 0.231232
1000.31 3.59239e-10 1.00004 0.231234
1000.3 3.53959e-10 1.00004 0.231229
1000.3 3.56468e-10 1.00004 0.231221
1000.3 3.57039e-10 1.00004 0.231227
1000.28 3.28782e-10 1.00004 0.231187
1000.31 3.60187e-10 1.00004 0.231231
1000.31 3.60127e-10 1.00004 0.23123
1000.3 3.51759e-10 1.00004 0.231239
1000.28 3.32196e-10 1.00004 0.231211
1000.38 4.48067e-10 1.00004 0.231162
1000.38 4.4842e-10 1.00004 0.231158
1000.28 3.28634e-10 1.00004 0.231184
1000.28 3.28145e-10 1.00004 0.23121
1000.31 3.63581e-10 1.00004 0.231232
1000.28 3.2881e-10 1.00004 0.231187
1000.31 3.59606e-10 1.00004 0.23123
1000.31 3.59318e-10 1.00004 0.231234
1000.3 3.50379e-10 1.00004 0.231224
1000.38 4.47811e-10 1.00004 0.231164
1000.28 3.2878e-10 1.00004 0.231185
1000.28 3.28782e-10 1.00004 0.231183
1000.31 3.60118e-10 1.00004 0.231226
1000.31 3.46351e-10 1.00004 0.231232
1000.31 3.6269e-10 1.00004 0.231231
1000.3 3.34534e-10 1.00004 0.23123
1000.31 3.59313e-10 1.00004 0.231228
1000.3 3.54908e-10 1.00004 0.231222
1000.3 3.54877e-10 1.00004 0.231223
1000.3 3.57653e-10 1.00004 0.23121
1000.38 4.48046e-10 1.00004 0.231165
1000.28 3.28802e-10 1.00004 0.231182
1000.31 3.59431e-10 1.00004 0.231227
1000.31 3.59416e-10 1.00004 0.231224
1000.3 3.5097e-10 1.00004 0.231236
1000.3 4.09059e-10 1.00004 0.231235
1000.3 3.36696e-10 1.00004 0.231222
1000.3 4.24599e-10 1.00004 0.231224
1000.3 3.55663e-10 1.00004 0.231227
1000.3 3.36993e-10 1.00004 0.2312
1000.3 3.36732e-10 1.00004 0.231203
1000.28 3.28453e-10 1.00004 0.231182
1000.31 3.59948e-10 1.00004 0.231223
1000.28 3.28203e-10 1.00004 0.231183
1000.28 3.28279e-10 1.00004 0.231182
1000.38 4.48204e-10 1.00004 0.23118
1000.38 4.47971e-10 1.00004 0.231174
1000 0 1.00004 0.231202
1000 0 1.00004 0.231225
1000 0 1.00004 0.231222
1000.38 4.47999e-10 1.00004 0.231164
1000 0 1.00004 0.231219
1000.38 4.482e-10 1.00004 0.231162
1000 0 1.00004 0.231215
1000.38 4.48583e-10 1.00004 0.23116
1000 0 1.00004 0.231211
1000.28 3.27135e-10 1.00004 0.231203
1000.28 3.27293e-10 1.00004 0.23118
1000.31 3.58047e-10 1.00004 0.231207
1000.31 3.58761e-10 1.00004 0.231175
1000.28 3.2772e-10 1.00004 0.231156
1000.38 4.51679e-10 1.00004 0.231152
1000.28 3.31596e-10 1.00004 0.231153
1000.31 3.67319e-10 1.00004 0.231161
1000.31 3.65881e-10 1.00004 0.231191
1000.3 3.59637e-10 1.00004 0.231176
1000.31 3.66317e-10 1.00004 0.231223
1000.3 3.59348e-10 1.00004 0.23121
1000.31 3.50326e-10 1.00004 0.231158
1000.3 3.22959e-10 1.00004 0.231162
1000.3 3.25193e-10 1.00004 0.231193
1000.3 3.17771e-10 1.00004 0.231169
1000.3 3.20627e-10 1.00004 0.231227
1000.3 3.17545e-10 1.00004 0.231201
1000.28 3.2814e-10 1.00004 0.23116
1000.28 3.27996e-10 1.00004 0.231188
1000.31 3.59792e-10 1.00004 0.231182
1000.31 3.58951e-10 1.00004 0.231207
1000.38 4.48778e-10 1.00004 0.231156
1000.28 3.28731e-10 1.00004 0.231193
1000.31 3.59482e-10 1.00004 0.231232
1000.31 3.59145e-10 1.00004 0.231224
1000.3 3.50419e-10 1.00004 0.231219
1000.3 3.50638e-10 1.00004 0.231232
1000.3 3.50676e-10 1.00004 0.231231
1000.3 3.5234e-10 1.00004 0.23123
1000.28 3.28322e-10 1.00004 0.231188
1000.31 3.59987e-10 1.00004 0.23123
1000.28 3.28461e-10 1.00004 0.231188
1000.31 3.63865e-10 1.00004 0.231166
1000.31 3.62756e-10 1.00004 0.231197
1000.3 3.55004e-10 1.00004 0.231181
1000.3 3.54421e-10 1.00004 0.23121
1000.28 3.28582e-10 1.00004 0.231189
1000.31 3.59315e-10 1.00004 0.231233
1000.3 3.53836e-10 1.00004 0.231229
1000.3 3.54059e-10 1.00004 0.231227
1000.3 3.5708e-10 1.00004 0.231224
1000.3 3.56289e-10 1.00004 0.231221
1000.3 3.55982e-10 1.00004 0.231232
1000.3 3.5676e-10 1.00004 0.231226
1000.31 3.60189e-10 1.00004 0.23123
1000.3 3.51764e-10 1.00004 0.231238
1000.28 3.28767e-10 1.00004 0.231187
1000.31 3.60125e-10 1.00004 0.23123
1000.3 3.3878e-10 1.00004 0.231166
1000.3 3.38813e-10 1.00004 0.2312
1000.3 3.38124e-10 1.00004 0.231174
1000.3 3.39274e-10 1.00004 0.231214
1000.3 3.40545e-10 1.00004 0.23123
1000.3 3.34634e-10 1.00004 0.231227
1000.31 3.59443e-10 1.00004 0.231232
1000.3 3.39305e-10 1.00004 0.231233
1000.3 3.55288e-10 1.00004 0.231232
1000.3 3.41613e-10 1.00004 0.231214
1000.3 3.37497e-10 1.00004 0.231212
1000.3 3.28892e-10 1.00004 0.231219
1000.28 3.28121e-10 1.00004 0.231187
1000.31 3.59139e-10 1.00004 0.23123
1000.3 3.50873e-10 1.00004 0.231238
1000.3 3.5083e-10 1.00004 0.231238
1000.3 3.5267e-10 1.00004 0.231227
1000.38 4.4796e-10 1.00004 0.231164
1000.31 3.45351e-10 1.00004 0.231232
1000.28 3.28794e-10 1.00004 0.231183
1000.28 3.28785e-10 1.00004 0.231185
1000.31 3.60119e-10 1.00004 0.231226
1000.31 3.62907e-10 1.00004 0.231232
1000.3 3.33247e-10 1.00004 0.23123
1000.31 3.5924e-10 1.00004 0.231228
1000.3 3.55097e-10 1.00004 0.231223
1000.3 3.55162e-10 1.00004 0.231223
1000.3 3.57958e-10 1.00004 0.231212
1000.38 4.47897e-10 1.00004 0.231165
1000.28 3.28789e-10 1.00004 0.231182
1000.31 3.59472e-10 1.00004 0.231227
1000.31 3.59453e-10 1.00004 0.231224
1000.3 3.5103e-10 1.00004 0.231236
1000.3 4.05057e-10 1.00004 0.231235
1000.3 3.37845e-10 1.00004 0.231221
1000.3 4.19625e-10 1.00004 0.231223
1000.3 3.55414e-10 1.00004 0.231227
1000.3 3.38276e-10 1.00004 0.231202
1000.3 3.38074e-10 1.00004 0.231204
1000.28 3.2855e-10 1.00004 0.231182
1000.31 3.59156e-10 1.00004 0.231223
1000.3 3.54303e-10 1.00004 0.231233
1000.3 3.5424e-10 1.00004 0.231236
1000.3 3.57214e-10 1.00004 0.231228
1000.3 1.22105e-10 1.00004 0.231228
1000.3 4.15828e-10 1.00004 0.231203
1000.3 7.47246e-11 1.00004 0.231201
1000.3 3.35867e-10 1.00004 0.231208
1000.3 4.16441e-10 1.00004 0.231189
1000.28 3.28436e-10 1.00004 0.231182
1000.31 3.59816e-10 1.00004 0.231223
1000.31 3.59946e-10 1.00004 0.231223
1000.3 3.51492e-10 1.00004 0.231239
1000.31 3.59896e-10 1.00004 0.231223
1000.28 3.28027e-10 1.00004 0.231183
1000.28 3.28178e-10 1.00004 0.231182
1000.38 4.48237e-10 1.00004 0.23118
1000.28 3.28301e-10 1.00004 0.231182
1000.38 4.48057e-10 1.00004 0.231181
1000 0 1.00004 0.231204
1000.38 4.48119e-10 1.00004 0.23118
1000 0 1.00004 0.231213
1000 0 1.00004 0.231225
1000.38 4.47868e-10 1.00004 0.231165
1000.38 4.47854e-10 1.00004 0.231164
1000 0 1.00004 0.231222
1000 0 1.00004 0.231219
1000.38 4.48348e-10 1.00004 0.231162
1000 0 1.00004 0.231215
1000.31 3.66765e-10 1.00004 0.231223
1000.31 3.66245e-10 1.00004 0.231191
1000.3 3.59885e-10 1.00004 0.23121
1000.3 3.60179e-10 1.00004 0.231174
1000.31 3.67751e-10 1.00004 0.231161
1000.28 3.31765e-10 1.00004 0.231153
1000.31 3.5104e-10 1.00004 0.231158
1000.3 3.24903e-10 1.00004 0.231161
1000.3 3.26973e-10 1.00004 0.231193
1000.3 3.20187e-10 1.00004 0.231166
1000.3 3.22689e-10 1.00004 0.231227
1000.3 3.19945e-10 1.00004 0.2312
1000.3 4.02004e-10 1.00004 0.231158
1000.3 4.89211e-10 1.00004 0.231154
1000.3 4.74992e-10 1.00004 0.231183
1000.3 5.21343e-10 1.00004 0.231148
1000.3 4.82276e-10 1.00004 0.231215
1000.3 5.07491e-10 1.00004 0.231183
1000.31 3.6405e-10 1.00004 0.231165
1000.31 3.62913e-10 1.00004 0.231197
1000.3 3.55239e-10 1.00004 0.231181
1000.3 3.54593e-10 1.00004 0.23121
1000.28 3.28583e-10 1.00004 0.23119
1000.31 3.59239e-10 1.00004 0.231232
1000.3 3.53959e-10 1.00004 0.231229
1000.3 3.54217e-10 1.00004 0.231227
1000.3 3.57308e-10 1.00004 0.231225
1000.3 3.56152e-10 1.00004 0.231233
1000.3 3.56468e-10 1.00004 0.231221
1000.3 3.57039e-10 1.00004 0.231226
1000.31 3.60187e-10 1.00004 0.23123
1000.3 3.51759e-10 1.00004 0.231238
1000.28 3.28782e-10 1.00004 0.231187
1000.31 3.60127e-10 1.00004 0.23123
1000.3 3.39646e-10 1.00004 0.231166
1000.3 3.3967e-10 1.00004 0.2312
1000.3 3.39165e-10 1.00004 0.231174
1000.3 3.40203e-10 1.00004 0.231215
1000.31 3.59497e-10 1.00004 0.231232
1000.3 3.55046e-10 1.00004 0.231232
1000.3 3.42392e-10 1.00004 0.231214
1000.3 3.41392e-10 1.00004 0.23123
1000.3 3.35845e-10 1.00004 0.231226
1000.3 3.38465e-10 1.00004 0.231212
1000.3 3.40174e-10 1.00004 0.231234
1000.3 3.30408e-10 1.00004 0.231217
1000.3 3.5094e-10 1.00004 0.231238
1000.3 3.52764e-10 1.00004 0.231227
1000.3 3.50911e-10 1.00004 0.231238
1000.28 3.28158e-10 1.00004 0.231187
1000.31 3.59198e-10 1.00004 0.23123
1000.3 4.16427e-10 1.00004 0.231155
1000.3 4.03941e-10 1.00004 0.23119
1000.3 4.19999e-10 1.00004 0.231214
1000.3 4.04503e-10 1.00004 0.231233
1000.3 3.54428e-10 1.00004 0.231236
1000.3 4.37257e-10 1.00004 0.231219
1000.3 3.35688e-10 1.00004 0.231215
1000.3 4.10364e-10 1.00004 0.231202
1000.3 4.30505e-10 1.00004 0.231206
1000.28 3.27902e-10 1.00004 0.231187
1000.31 3.62611e-10 1.00004 0.23123
1000.3 3.54881e-10 1.00004 0.231237
1000.3 3.56912e-10 1.00004 0.231226
1000.3 3.57348e-10 1.00004 0.231223
1000.3 3.58758e-10 1.00004 0.231219
1000.38 4.48046e-10 1.00004 0.231165
1000.28 3.28802e-10 1.00004 0.231182
1000.3 4.09059e-10 1.00004 0.231235
1000.31 3.59416e-10 1.00004 0.231224
1000.31 3.59431e-10 1.00004 0.231227
1000.3 3.5097e-10 1.00004 0.231237
1000.3 3.36696e-10 1.00004 0.23122
1000.3 4.24599e-10 1.00004 0.231222
1000.3 3.55663e-10 1.00004 0.231228
1000.3 3.36732e-10 1.00004 0.231204
1000.3 3.36993e-10 1.00004 0.231204
1000.28 3.28539e-10 1.00004 0.231182
1000.31 3.59177e-10 1.00004 0.231223
1000.3 3.54165e-10 1.00004 0.231234
1000.3 3.54101e-10 1.00004 0.231236
1000.3 3.57016e-10 1.00004 0.231227
1000.3 1.38183e-10 1.00004 0.231228
1000.3 4.11114e-10 1.00004 0.231203
1000.3 9.41181e-11 1.00004 0.231201
1000.3 3.37188e-10 1.00004 0.231207
1000.3 4.11642e-10 1.00004 0.231189
1000.31 3.59965e-10 1.00004 0.231223
1000.3 3.54982e-10 1.00004 0.231238