# vtk DataFile Version 2.0
Wound Healing Simulation
ASCII
DATASET UNSTRUCTURED_GRID
POINTS 3012 float
69.9759 18.75 4
67.2507 60.3285 4
69.976 18.75 2
73.0099 25.446 4
71.1327 20.9142 4
68.6801 16.6661 4
67.8245 19.9255 4
67.2507 60.3286 2
71.1327 54.0858 4
68.6801 58.3339 4
65.6939 62.2254 4
65.3114 59.0001 4
74.6784 42.3946 4
73.7221 47.2057 4
69.9759 18.75 0
73.0099 25.446 2
68.6801 16.6661 2
71.1327 20.9142 2
67.8245 19.9255 2
74.6792 32.6053 4
73.7222 27.7943 4
72.1454 23.1494 4
70.6136 26.2215 4
68.8849 21.9577 4
67.2507 14.6715 4
66.636 17.9718 4
65.8015 21.0185 4
67.2507 60.3285 0
71.1327 54.0858 2
68.6801 58.3339 2
65.694 62.2255 2
65.3114 59.0001 2
72.1454 51.8506 4
69.9759 56.25 4
68.8358 53.1133 4
64.0165 64.0165 4
66.6097 57.1335 4
63.8849 60.7634 4
63.5022 57.7791 4
60.3285 67.2507 4
74.6792 42.3947 2
73.7222 47.2057 2
74.9194 39.9526 4
74.2788 44.8158 4
72.1676 42.0856 4
73.0099 49.554 4
71.2489 46.5976 4
73.0099 25.446 0
71.1327 20.9142 0
68.6801 16.6661 0
67.8245 19.9255 0
74.6792 32.6053 2
73.7222 27.7943 2
67.2508 14.6715 2
72.1455 23.1494 2
70.6136 26.2215 2
66.636 17.9718 2
68.8849 21.9577 2
65.8015 21.0185 2
74.9197 35.0474 4
74.2794 30.1841 4
72.1841 32.9434 4
71.2777 28.4319 4
69.815 24.0598 4
68.3532 26.9483 4
66.7679 22.9278 4
65.694 12.7746 4
65.3226 16.1046 4
64.7168 19.187 4
63.8985 22.0207 4
71.1327 54.0858 0
65.6939 62.2254 0
68.6801 58.3339 0
65.3114 59.0001 0
72.1455 51.8506 2
69.9759 56.25 2
68.8358 53.1133 2
64.0165 64.0165 2
66.6097 57.1335 2
63.8849 60.7634 2
63.5022 57.7791 2
62.2254 65.694 4
58.8924 65.409 4
69.7685 50.9887 4
67.7829 55.1676 4
66.6554 52.2147 4
62.3351 62.4236 4
64.6639 56.0389 4
62.203 59.4106 4
61.8293 56.6963 4
58.3339 68.6801 4
60.3285 67.2508 2
73.7221 47.2057 0
74.6784 42.3946 0
74.9197 39.9526 2
74.2794 44.8159 2
72.1676 42.0856 2
73.0099 49.554 2
71.2489 46.5976 2
75 37.5 4
72.4048 39.8023 4
71.782 44.3526 4
69.8108 41.7908 4
70.5748 48.8131 4
68.9192 46.0173 4
74.6792 32.6053 0
73.7222 27.7943 0
67.2507 14.6715 0
72.1454 23.1494 0
70.6136 26.2215 0
68.8849 21.9577 0
66.636 17.9718 0
65.8015 21.0185 0
74.9197 35.0474 2
74.2794 30.1841 2
72.1841 32.9434 2
71.2777 28.4319 2
65.694 12.7745 2
65.3226 16.1046 2
69.815 24.0598 2
68.3532 26.9483 2
64.7168 19.187 2
66.7679 22.9278 2
63.8985 22.0207 2
72.4126 35.2242 4
71.8033 30.6766 4
69.8465 33.2674 4
68.9727 29.0359 4
67.6173 24.9078 4
66.2099 27.6263 4
64.0165 10.9835 4
64.7698 23.8174 4
63.889 14.3299 4
63.5144 17.439 4
62.9159 20.3045 4
62.1119 22.9212 4
60.6827 11.1021 4
57.6106 11.4478 4
72.1454 51.8506 0
69.9759 56.25 0
68.8358 53.1133 0
64.0165 64.0165 0
63.8849 60.7634 0
66.6097 57.1335 0
63.5022 57.7791 0
62.2255 65.694 2
58.8924 65.409 2
69.7685 50.9887 2
67.7829 55.1676 2
66.6554 52.2147 2
62.3351 62.4236 2
64.6639 56.0389 2
62.203 59.4106 2
61.8293 56.6963 2
60.6673 63.9725 4
57.023 66.7292 4
57.5557 63.6894 4
67.5141 50.1811 4
65.7066 54.1799 4
64.552 51.3983 4
60.772 60.9414 4
62.8289 55.0829 4
60.6618 58.1727 4
60.3383 55.8078 4
56.25 69.9759 4
58.3339 68.6801 2
60.3285 67.2507 0
58.9197 9.66083 4
62.2254 9.30607 4
73.0099 49.554 0
74.2788 44.8158 0
71.2489 46.5976 0
72.1676 42.0856 0
74.9194 39.9526 0
75 37.5 2
72.4048 39.8023 2
71.782 44.3526 2
69.8108 41.7908 2
70.5748 48.8131 2
68.9192 46.0173 2
72.4882 37.5121 4
70.0478 39.658 4
69.4372 43.9093 4
67.6137 41.5009 4
68.2728 48.1104 4
66.7263 45.4467 4
74.9197 35.0474 0
74.2794 30.1841 0
72.1841 32.9434 0
71.2777 28.4319 0
65.694 12.7746 0
65.3226 16.1046 0
69.815 24.0598 0
68.3532 26.9483 0
66.7679 22.9278 0
64.7168 19.187 0
63.8985 22.0207 0
72.4126 35.2242 2
71.8033 30.6766 2
69.8465 33.2674 2
68.9727 29.0359 2
64.0165 10.9835 2
63.889 14.3299 2
63.5144 17.439 2
67.6173 24.9078 2
66.2099 27.6263 2
62.9159 20.3045 2
64.7698 23.8174 2
62.1119 22.9212 2
60.6827 11.1021 2
57.6106 11.4478 2
70.0644 35.3916 4
69.4737 31.1479 4
67.6714 33.588 4
66.7881 29.6163 4
65.5386 25.6888 4
64.1714 28.242 4
62.3405 12.6589 4
62.8787 24.6176 4
62.1984 15.7785 4
61.8192 18.6694 4
61.233 21.3184 4
60.4523 23.6987 4
59.2446 12.7772 4
55.8724 10.236 4
56.4044 13.1083 4
69.7685 50.9887 0
62.2254 65.694 0
58.8924 65.409 0
67.7829 55.1676 0
66.6554 52.2147 0
62.3351 62.4236 0
62.203 59.4106 0
64.6639 56.0389 0
61.8293 56.6963 0
60.6673 63.9725 2
57.023 66.7292 2
57.5557 63.6894 2
67.5141 50.1811 2
65.7066 54.1799 2
64.552 51.3983 2
60.772 60.9414 2
62.8289 55.0829 2
60.6618 58.1727 2
60.3383 55.8078 2
55.0686 67.9256 4
59.2176 62.3669 4
55.8019 64.9051 4
56.3259 62.0919 4
65.3476 49.4194 4
63.7179 53.3068 4
62.4653 50.6726 4
59.3342 59.5664 4
61.091 54.3312 4
59.2958 57.0328 4
59.2552 55.21 4
48.1009 68.569 4
50.9468 69.9243 4
54.0858 71.1327 4
56.25 69.976 2
58.3339 68.6801 0
57.0568 8.34119 4
60.3285 7.74928 4
58.9197 9.66083 2
62.2255 9.30602 2
70.5748 48.8131 0
71.782 44.3526 0
68.9192 46.0173 0
69.8108 41.7908 0
72.4048 39.8023 0
75 37.5 0
72.4882 37.5121 2
70.0478 39.658 2
69.4372 43.9093 2
67.6137 41.5009 2
68.2728 48.1104 2
66.7263 45.4467 2
70.1359 37.5216 4
67.8507 39.5141 4
67.2401 43.475 4
65.5825 41.2154 4
66.0851 47.4269 4
64.6788 44.8598 4
72.4126 35.2242 0
71.8033 30.6766 0
69.8465 33.2674 0
68.9727 29.0359 0
64.0165 10.9835 0
63.889 14.3299 0
63.5144 17.439 0
67.6173 24.9078 0
66.2099 27.6263 0
64.7698 23.8174 0
62.9159 20.3045 0
62.1119 22.9212 0
60.6827 11.1021 0
57.6106 11.4478 0
70.0644 35.3916 2
69.4737 31.1479 2
67.6714 33.588 2
66.7881 29.6163 2
62.3405 12.6589 2
62.1984 15.7785 2
61.8192 18.6694 2
65.5386 25.6888 2
64.1714 28.242 2
61.233 21.3184 2
62.8787 24.6176 2
60.4523 23.6987 2
59.2446 12.7772 2
56.4044 13.1083 2
55.8724 10.236 2
67.8866 35.5462 4
67.2814 31.6177 4
65.7234 33.9227 4
64.6891 30.1816 4
63.5619 26.3975 4
62.292 28.7597 4
60.7738 14.2196 4
61.0754 25.3118 4
60.6147 17.115 4
60.2326 19.7943 4
59.683 22.2283 4
59.0112 24.2856 4
54.0355 9.1405 4
57.9096 14.3246 4
54.7856 12.0101 4
55.3125 14.6359 4
67.5141 50.1811 0
57.023 66.7292 0
60.6673 63.9725 0
57.5557 63.6894 0
65.7066 54.1799 0
64.552 51.3983 0
60.772 60.9414 0
60.6618 58.1727 0
62.8289 55.0829 0
60.3383 55.8078 0
55.0686 67.9256 2
59.2176 62.3669 2
55.8019 64.9051 2
56.3259 62.0919 2
65.3476 49.4194 2
63.7179 53.3068 2
62.4653 50.6726 2
59.3342 59.5664 2
61.091 54.3312 2
59.2958 57.0328 2
59.2552 55.21 2
53.0407 68.9929 4
53.9641 66.006 4
57.8804 60.8757 4
54.682 63.2053 4
55.2114 60.6227 4
63.2202 48.6792 4
61.7608 52.597 4
60.3069 50.0473 4
58.0211 58.2764 4
59.3448 53.9758 4
58.1369 55.8405 4
50.1071 67.8477 4
47.4616 66.5726 4
46.0551 69.1479 4
48.1009 68.569 2
48.8012 70.7152 4
50.9468 69.9243 2
51.8506 72.1454 4
54.0858 71.1327 2
56.25 69.9759 0
55.1012 7.14619 4
58.3339 6.31992 4
57.0568 8.34119 2
60.3286 7.74926 2
58.9197 9.66083 0
62.2254 9.30607 0
68.2728 48.1104 0
69.4372 43.9093 0
66.7263 45.4467 0
67.6137 41.5009 0
70.0478 39.658 0
72.4882 37.5121 0
70.1359 37.5216 2
67.8507 39.5141 2
67.2401 43.475 2
65.5825 41.2154 2
66.0851 47.4269 2
64.6788 44.8598 2
67.947 37.5222 4
65.8141 39.3731 4
65.2026 43.0338 4
63.792 40.9369 4
63.9922 46.7314 4
62.8438 44.2318 4
70.0644 35.3916 0
69.4737 31.1479 0
67.6714 33.588 0
66.7881 29.6163 0
62.3405 12.6589 0
62.1984 15.7785 0
61.8192 18.6694 0
65.5386 25.6888 0
64.1714 28.242 0
62.8787 24.6176 0
61.233 21.3184 0
60.4523 23.6987 0
59.2446 12.7772 0
56.4044 13.1083 0
55.8724 10.236 0
67.8866 35.5462 2
67.2814 31.6177 2
65.7234 33.9227 2
64.6891 30.1816 2
60.7738 14.2196 2
60.6147 17.115 2
60.2326 19.7943 2
63.5619 26.3975 2
62.292 28.7597 2
59.683 22.2283 2
61.0754 25.3118 2
59.0112 24.2856 2
57.9096 14.3246 2
55.3125 14.6359 2
54.0355 9.1405 2
54.7856 12.0101 2
65.9023 35.6647 4
65.2125 32.1468 4
64.3174 34.2446 4
62.6319 30.6216 4
61.6845 27.0499 4
60.8927 29.1194 4
59.3105 15.6592 4
59.3691 25.7645 4
59.1281 18.3369 4
58.755 20.8256 4
58.3128 23.0558 4
58.0051 24.6262 4
52.1102 8.16002 4
53.0567 11.0183 4
56.6766 15.7299 4
53.8092 13.6738 4
54.3767 15.9835 4
55.0686 67.9256 0
65.3476 49.4194 0
55.8019 64.9051 0
59.2176 62.3669 0
56.3259 62.0919 0
63.7179 53.3068 0
62.4653 50.6726 0
59.3342 59.5664 0
59.2958 57.0328 0
61.091 54.3312 0
59.2552 55.21 0
53.0407 68.9929 2
53.9641 66.006 2
57.8804 60.8757 2
54.682 63.2053 2
55.2114 60.6227 2
63.2202 48.6792 2
61.7608 52.597 2
60.3069 50.0473 2
58.0211 58.2764 2
59.3448 53.9758 2
58.1369 55.8405 2
52.0678 66.9915 4
52.9511 64.2137 4
56.6493 59.4995 4
53.6801 61.6245 4
54.2608 59.3328 4
61.0308 47.9061 4
59.7359 52.1343 4
58.0677 49.6551 4
56.7822 57.0103 4
57.139 54.1581 4
50.1071 67.8477 2
49.335 65.9135 4
47.4616 66.5726 2
46.8909 64.7306 4
45.557 67.0894 4
43.9725 69.58 4
46.0551 69.1479 2
46.6082 71.3594 4
48.1009 68.569 0
48.8012 70.7152 2
49.554 73.0099 4
50.9468 69.9243 0
51.8506 72.1455 2
54.0858 71.1327 0
53.0624 6.07813 4
55.1012 7.14619 2
56.25 5.02411 4
58.3339 6.3199 2
57.0568 8.34119 0
60.3285 7.74928 0
66.0851 47.4269 0
67.2401 43.475 0
64.6788 44.8598 0
65.5825 41.2154 0
67.8507 39.5141 0
70.1359 37.5216 0
67.947 37.5222 2
65.8141 39.3731 2
65.2026 43.0338 2
63.792 40.9369 2
63.9922 46.7314 2
62.8438 44.2318 2
65.9169 37.5021 4
63.9366 39.2706 4
63.3657 42.5613 4
62.4758 40.7058 4
62.005 45.9397 4
61.4969 43.7008 4
67.8866 35.5462 0
67.2814 31.6177 0
65.7234 33.9227 0
64.6891 30.1816 0
60.7738 14.2196 0
60.6147 17.115 0
60.2326 19.7943 0
63.5619 26.3975 0
62.292 28.7597 0
61.0754 25.3118 0
59.683 22.2283 0
59.0112 24.2856 0
57.9096 14.3246 0
55.3125 14.6359 0
54.0355 9.1405 0
54.7856 12.0101 0
65.9023 35.6647 2
65.2125 32.1468 2
64.3174 34.2446 2
62.6319 30.6216 2
59.3105 15.6592 2
59.1281 18.3369 2
58.755 20.8256 2
61.6845 27.0499 2
60.8927 29.1194 2
58.3128 23.0558 2
59.3691 25.7645 2
58.0051 24.6262 2
56.6766 15.7299 2
54.3767 15.9835 2
53.8092 13.6738 2
52.1102 8.16002 2
53.0567 11.0183 2
64.1261 35.6295 4
62.9697 33.0373 4
60.6624 30.5943 4
59.6174 27.8826 4
57.9405 16.9682 4
57.7829 25.6878 4
57.7226 19.4519 4
57.3913 21.8057 4
57.2203 23.9055 4
50.1105 7.29292 4
51.2312 10.1283 4
52.1714 12.7934 4
55.5382 16.9551 4
52.9777 15.251 4
[...]
POINT_DATA 3012
SCALARS rho_c_phif_kappa float 4
LOOKUP_TABLE default
1000 0 1 0.23
1000 0 1 0.23
1000 0 1 0.23
1000 0 1 0.23
1000 0 1 0.23
1000 0 1 0.23
1000 0 1 0.23
1000 0 1 0.23
1000 0 1 0.23
1000 0 1 0.23
1000 0 1 0.23
1000 0 1 0.23
1000 0 1 0.23
1000 0 1 0.23
1000 0 1 0.23
1000 0 1 0.23
1000 0 1 0.23
1000 0 1 0.23
1000 0 1 0.23
1000 0 1 0.23
1000 0 1 0.23
1000 0 1 0.23
1000 0 1 0.23
1000 0 1 0.23
1000 0 1 0.23
1000 0 1 0.23
1000 0 1 0.23
1000 0 1 0.23
1000 0 1 0.23
1000 0 1 0.23
1000 0 1 0.23
1000 0 1 0.23
1000 0 1 0.23
1000 0 1 0.23
1000 0 1 0.23
1000 0 1 0.23
1000 0 1 0.23
1000 0 1 0.23
1000 0 1 0.23
1000 0 1 0.23
1000 0 1 0.23
1000 0 1 0.23
1000 0 1 0.23
1000 0 1 0.23
1000 0 1 0.23
1000 0 1 0.23
1000 0 1 0.23
1000 0 1 0.23
1000 0 1 0.23
1000 0 1 0.23
1000 0 1 0.23
1000 0 1 0.23
1000 0 1 0.23
1000 0 1 0.23
1000 0 1 0.23
1000 0 1 0.23
1000 0 1 0.23
1000 0 1 0.23
1000 0 1 0.23
1000 0 1 0.23
1000 0 1 0.23
1000 0 1 0.23
1000 0 1 0.23
1000 0 1 0.23
1000 0 1 0.23
1000 0 1 0.23
1000 0 1 0.23
1000 0 1 0.23
1000 0 1 0.23
1000 0 1 0.23
1000 0 1 0.23
1000 0 1 0.23
1000 0 1 0.23
1000 0 1 0.23
1000 0 1 0.23
1000 0 1 0.23
1000 0 1 0.23
1000 0 1 0.23
1000 0 1 0.23
1000 0 1 0.23
1000 0 1 0.23
1000 0 1 0.23
1000 0 1 0.23
1000 0 1 0.23
1000 0 1 0.23
1000 0 1 0.23
1000 0 1 0.23
1000 0 1 0.23
1000 0 1 0.23
1000 0 1 0.23
1000 0 1 0.23
1000 0 1 0.23
1000 0 1 0.23
1000 0 1 0.23
1000 0 1 0.23
1000 0 1 0.23
1000 0 1 0.23
1000 0 1 0.23
1000 0 1 0.23
1000 0 1 0.23
1000 0 1 0.23
1000 0 1 0.23
1000 0 1 0.23
1000 0 1 0.23
1000 0 1 0.23
1000 0 1 0.23
1000 0 1 0.23
1000 0 1 0.23
1000 0 1 0.23
1000 0 1 0.23
1000 0 1 0.23
1000 0 1 0.23
1000 0 1 0.23
1000 0 1 0.23
1000 0 1 0.23
1000 0 1 0.23
1000 0 1 0.23
1000 0 1 0.23
1000 0 1 0.23
1000 0 1 0.23
1000 0 1 0.23
1000 0 1 0.23
1000 0 1 0.23
1000 0 1 0.23
1000 0 1 0.23
1000 0 1 0.23
1000 0 1 0.23
1000 0 1 0.23
1000 0 1 0.23
1000 0 1 0.23
1000 0 1 0.23
1000 0 1 0.23
1000 0 1 0.23
1000 0 1 0.23
1000 0 1 0.23
1000 0 1 0.23
1000 0 1 0.23
1000 0 1 0.23
1000 0 1 0.23
1000 0 1 0.23
1000 0 1 0.23
1000 0 1 0.23
1000 0 1 0.23
1000 0 1 0.23
1000 0 1 0.23
1000 0 1 0.23
1000 0 1 0.23
1000 0 1 0.23
1000 0 1 0.23
1000 0 1 0.23
1000 0 1 0.23
1000 0 1 0.23
1000 0 1 0.23
1000 0 1 0.23
1000 0 1 0.23
1000 0 1 0.23
1000 0 1 0.23
1000 0 1 0.23
1000 0 1 0.23
1000 0 1 0.23
1000 0 1 0.23
1000 0 1 0.23
1000 0 1 0.23
1000 0 1 0.23
1000 0 1 0.23
1000 0 1 0.23
1000 0 1 0.23
1000 0 1 0.23
1000 0 1 0.23
1000 0 1 0.23
1000 0 1 0.23
1000 0 1 0.23
1000 0 1 0.23
1000 0 1 0.23
1000 0 1 0.23
1000 0 1 0.23
1000 0 1 0.23
1000 0 1 0.23
1000 0 1 0.23
1000 0 1 0.23
1000 0 1 0.23
1000 0 1 0.23
1000 0 1 0.23
1000 0 1 0.23
1000 0 1 0.23
1000 0 1 0.23
1000 0 1 0.23
1000 0 1 0.23
1000 0 1 0.23
1000 0 1 0.23
1000 0 1 0.23
1000 0 1 0.23
1000 0 1 0.23
1000 0 1 0.23
1000 0 1 0.23
1000 0 1 0.23
1000 0 1 0.23
1000 0 1 0.23
1000 0 1 0.23
1000 0 1 0.23
1000 0 1 0.23
1000 0 1 0.23
1000 0 1 0.23
1000 0 1 0.23
1000 0 1 0.23
1000 0 1 0.23
1000 0 1 0.23
1000 0 1 0.23
1000 0 1 0.23
1000 0 1 0.23
1000 0 1 0.23
1000 0 1 0.23
1000 0 1 0.23
1000 0 1 0.23
1000 0 1 0.23
1000 0 1 0.23
1000 0 1 0.23
1000 0 1 0.23
1000 0 1 0.23
1000 0 1 0.23
1000 0 1 0.23
1000 0 1 0.23
1000 0 1 0.23
1000 0 1 0.23
1000 0 1 0.23
1000 0 1 0.23
1000 0 1 0.23
1000 0 1 0.23
1000 0 1 0.23
1000 0 1 0.23
1000 0 1 0.23
1000 0 1 0.23
1000 0 1 0.23
1000 0 1 0.23
1000 0 1 0.23
1000 0 1 0.23
1000 0 1 0.23
1000 0 1 0.23
1000 0 1 0.23
1000 0 1 0.23
1000 0 1 0.23
1000 0 1 0.23
1000 0 1 0.23
1000 0 1 0.23
1000 0 1 0.23
1000 0 1 0.23
1000 0 1 0.23
1000 0 1 0.23
1000 0 1 0.23
1000 0 1 0.23
1000 0 1 0.23
1000 0 1 0.23
1000 0 1 0.23
1000 0 1 0.23
1000 0 1 0.23
1000 0 1 0.23
1000 0 1 0.23
1000 0 1 0.23
1000 0 1 0.23
1000 0 1 0.23
1000 0 1 0.23
1000 0 1 0.23
1000 0 1 0.23
1000 0 1 0.23
1000 0 1 0.23
1000 0 1 0.23
1000 0 1 0.23
1000 0 1 0.23
1000 0 1 0.23
1000 0 1 0.23
1000 0 1 0.23
1000 0 1 0.23
1000 0 1 0.23
1000 0 1 0.23
1000 0 1 0.23
1000 0 1 0.23
1000 0 1 0.23
1000 0 1 0.23
1000 0 1 0.23
1000 0 1 0.23
1000 0 1 0.23
1000 0 1 0.23
1000 0 1 0.23
1000 0 1 0.23
1000 0 1 0.23
1000 0 1 0.23
1000 0 1 0.23
1000 0 1 0.23
1000 0 1 0.23
1000 0 1 0.23
1000 0 1 0.23
1000 0 1 0.23
1000 0 1 0.23
1000 0 1 0.23
1000 0 1 0.23
1000 0 1 0.23
1000 0 1 0.23
1000 0 1 0.23
1000 0 1 0.23
1000 0 1 0.23
1000 0 1 0.23
1000 0 1 0.23
1000 0 1 0.23
1000 0 1 0.23
1000 0 1 0.23
1000 0 1 0.23
1000 0 1 0.23
1000 0 1 0.23
1000 0 1 0.23
1000 0 1 0.23
1000 0 1 0.23
1000 0 1 0.23
1000 0 1 0.23
1000 0 1 0.23
1000 0 1 0.23
1000 0 1 0.23
1000 0 1 0.23
1000 0 1 0.23
1000 0 1 0.23
1000 0 1 0.23
1000 0 1 0.23
1000 0 1 0.23
1000 0 1 0.23
1000 0 1 0.23
1000 0 1 0.23
1000 0 1 0.23
1000 0 1 0.23
1000 0 1 0.23
1000 0 1 0.23
1000 0 1 0.23
1000 0 1 0.23
1000 0 1 0.23
1000 0 1 0.23
1000 0 1 0.23
1000 0 1 0.23
1000 0 1 0.23
1000 0 1 0.23
1000 0 1 0.23
1000 0 1 0.23
1000 0 1 0.23
1000 0 1 0.23
1000 0 1 0.23
1000 0 1 0.23
1000 0 1 0.23
1000 0 1 0.23
1000 0 1 0.23
1000 0 1 0.23
1000 0 1 0.23
1000 0 1 0.23
1000 0 1 0.23
1000 0 1 0.23
1000 0 1 0.23
1000 0 1 0.23
1000 0 1 0.23
1000 0 1 0.23
1000 0 1 0.23
1000 0 1 0.23
1000 0 1 0.23
1000 0 1 0.23
1000 0 1 0.23
1000 0 1 0.23
1000 0 1 0.23
1000 0 1 0.23
1000 0 1 0.23
1000 0 1 0.23
1000 0 1 0.23
1000 0 1 0.23
1000 0 1 0.23
1000 0 1 0.23
1000 0 1 0.23
1000 0 1 0.23
1000 0 1 0.23
1000 0 1 0.23
1000 0 1 0.23
1000 0 1 0.23
1000 0 1 0.23
1000 0 1 0.23
1000 0 1 0.23
1000 0 1 0.23
1000 0 1 0.23
1000 0 1 0.23
1000 0 1 0.23
1000 0 1 0.23
1000 0 1 0.23
1000 0 1 0.23
1000 0 1 0.23
1000 0 1 0.23
1000 0 1 0.23
1000 0 1 0.23
1000 0 1 0.23
1000 0 1 0.23
1000 0 1 0.23
1000 0 1 0.23
1000 0 1 0.23
1000 0 1 0.23
1000 0 1 0.23
1000 0 1 0.23
1000 0 1 0.23
1000 0 1 0.23
1000 0 1 0.23
1000 0 1 0.23
1000 0 1 0.23
1000 0 1 0.23
1000 0 1 0.23
1000 0 1 0.23
1000 0 1 0.23
1000 0 1 0.23
1000 0 1 0.23
1000 0 1 0.23
1000 0 1 0.23
1000 0 1 0.23
1000 0 1 0.23
1000 0 1 0.23
1000 0 1 0.23
1000 0 1 0.23
1000 0 1 0.23
1000 0 1 0.23
1000 0 1 0.23
1000 0 1 0.23
1000 0 1 0.23
1000 0 1 0.23
1000 0 1 0.23
1000 0 1 0.23
1000 0 1 0.23
1000 0 1 0.23
1000 0 1 0.23
1000 0 1 0.23
1000 0 1 0.23
1000 0 1 0.23
1000 0 1 0.23
1000 0 1 0.23
1000 0 1 0.23
1000 0 1 0.23
1000 0 1 0.23
1000 0 1 0.23
1000 0 1 0.23
1000 0 1 0.23
1000 0 1 0.23
1000 0 1 0.23
1000 0 1 0.23
1000 0 1 0.23
1000 0 1 0.23
1000 0 1 0.23
1000 0 1 0.23
1000 0 1 0.23
1000 0 1 0.23
1000 0 1 0.23
1000 0 1 0.23
1000 0 1 0.23
1000 0 1 0.23
1000 0 1 0.23
1000 0 1 0.23
1000 0 1 0.23
1000 0 1 0.23
1000 0 1 0.23
1000 0 1 0.23
1000 0 1 0.23
1000 0 1 0.23
1000 0 1 0.23
1000 0 1 0.23
1000 0 1 0.23
1000 0 1 0.23
1000 0 1 0.23
1000 0 1 0.23
1000 0 1 0.23
1000 0 1 0.23
1000 0 1 0.23
1000 0 1 0.23
1000 0 1 0.23
1000 0 1 0.23
1000 0 1 0.23
1000 0 1 0.23
1000 0 1 0.23
1000 0 1 0.23
1000 0 1 0.23
1000 0 1 0.23
1000 0 1 0.23
1000 0 1 0.23
1000 0 1 0.23
1000 0 1 0.23
1000 0 1 0.23
1000 0 1 0.23
1000 0 1 0.23
1000 0 1 0.23
1000 0 1 0.23
1000 0 1 0.23
1000 0 1 0.23
1000 0 1 0.23
1000 0 1 0.23
1000 0 1 0.23
1000 0 1 0.23
1000 0 1 0.23
1000 0 1 0.23
1000 0 1 0.23
1000 0 1 0.23
1000 0 1 0.23
1000 0 1 0.23
1000 0 1 0.23
1000 0 1 0.23
1000 0 1 0.23
1000 0 1 0.23
1000 0 1 0.23
1000 0 1 0.23
1000 0 1 0.23
1000 0 1 0.23
1000 0 1 0.23
1000 0 1 0.23
1000 0 1 0.23
1000 0 1 0.23
1000 0 1 0.23
1000 0 1 0.23
1000 0 1 0.23
1000 0 1 0.23
1000 0 1 0.23
1000 0 1 0.23
1000 0 1 0.23
1000 0 1 0.23
1000 0 1 0.23
1000 0 1 0.23
1000 0 1 0.23
1000 0 1 0.23
1000 0 1 0.23
1000 0 1 0.23
1000 0 1 0.23
1000 0 1 0.23
1000 0 1 0.23
1000 0 1 0.23
1000 0 1 0.23
1000 0 1 0.23
1000 0 1 0.23
1000 0 1 0.23
1000 0 1 0.23
1000 0 1 0.23
1000 0 1 0.23
1000 0 1 0.23
1000 0 1 0.23
1000 0 1 0.23
1000 0 1 0.23
1000 0 1 0.23
1000 0 1 0.23
1000 0 1 0.23
1000 0 1 0.23
1000 0 1 0.23
1000 0 1 0.23
1000 0 1 0.23
1000 0 1 0.23
1000 0 1 0.23
1000 0 1 0.23
1000 0 1 0.23
1000 0 1 0.23
1000 0 1 0.23
1000 0 1 0.23
1000 0 1 0.23
1000 0 1 0.23
1000 0 1 0.23
1000 0 1 0.23
1000 0 1 0.23
1000 0 1 0.23
1000 0 1 0.23
1000 0 1 0.23
1000 0 1 0.23
1000 0 1 0.23
1000 0 1 0.23
1000 0 1 0.23
1000 0 1 0.23
1000 0 1 0.23
1000 0 1 0.23
1000 0 1 0.23
1000 0 1 0.23
1000 0 1 0.23
1000 0 1 0.23
1000 0 1 0.23
1000 0 1 0.23
1000 0 1 0.23
1000 0 1 0.23
1000 0 1 0.23
1000 0 1 0.23
1000 0 1 0.23
1000 0 1 0.23
1000 0 1 0.23
1000 0 1 0.23
1000 0 1 0.23
1000 0 1 0.23
1000 0 1 0.23
1000 0 1 0.23
1000 0 1 0.23
1000 0 1 0.23
1000 0 1 0.23
1000 0 1 0.23
1000 0 1 0.23
1000 0 1 0.23
1000 0 1 0.23
1000 0 1 0.23
1000 0 1 0.23
1000 0 1 0.23
1000 0 1 0.23
1000 0 1 0.23
1000 0 1 0.23
1000 0 1 0.23
1000 0 1 0.23
1000 0 1 0.23
1000 0 1 0.23
1000 0 1 0.23
1000 0 1 0.23
1000 0 1 0.23
1000 0 1 0.23
1000 0 1 0.23
1000 0 1 0.23
1000 0 1 0.23
1000 0 1 0.23
1000 0 1 0.23
1000 0 1 0.23
1000 0 1 0.23
1000 0 1 0.23
1000 0 1 0.23
1000 0 1 0.23
1000 0 1 0.23
1000 0 1 0.23
1000 0 1 0.23
1000 0 1 0.23
1000 0 1 0.23
1000 0 1 0.23
1000 0 1 0.23
1000 0 1 0.23
1000 0 1 0.23
1000 0 1 0.23
1000 0 1 0.23
1000 0 1 0.23
1000 0 1 0.23
1000 0 1 0.23
1000 0 1 0.23
1000 0 1 0.23
1000 0 1 0.23
1000 0 1 0.23
1000 0 1 0.23
1000 0 1 0.23
1000 0 1 0.23
1000 0 1 0.23
1000 0 1 0.23
1000 0 1 0.23
1000 0 1 0.23
1000 0 1 0.23
1000 0 1 0.23
1000 0 1 0.23
1000 0 1 0.23
1000 0 1 0.23
1000 0 1 0.23
1000 0 1 0.23
1000 0 1 0.23
1000 0 1 0.23
1000 0 1 0.23
1000 0 1 0.23
1000 0 1 0.23
1000 0 1 0.23
1000 0 1 0.23
1000 0 1 0.23
1000 0 1 0.23
1000 0 1 0.23
1000 0 1 0.23
1000 0 1 0.23
1000 0 1 0.23
1000 0 1 0.23
1000 0 1 0.23
1000 0 1 0.23
1000 0 1 0.23
1000 0 1 0.23
1000 0 1 0.23
1000 0 1 0.23
1000 0 1 0.23
1000 0 1 0.23
1000 0 1 0.23
1000 0 1 0.23
1000 0 1 0.23
1000 0 1 0.23
1000 0 1 0.23
1000 0 1 0.23
1000 0 1 0.23
1000 0 1 0.23
1000 0 1 0.23
1000 0 1 0.23
1000 0 1 0.23
1000 0 1 0.23
1000 0 1 0.23
1000 0 1 0.23
1000 0 1 0.23
1000 0 1 0.23
1000 0 1 0.23
1000 0 1 0.23
1000 0 1 0.23
1000 0 1 0.23
1000 0 1 0.23
1000 0 1 0.23
1000 0 1 0.23
1000 0 1 0.23
1000 0 1 0.23
1000 0 1 0.23
1000 0 1 0.23
1000 0 1 0.23
1000 0 1 0.23
1000 0 1 0.23
1000 0 1 0.23
1000 0 1 0.23
1000 0 1 0.23
1000 0 1 0.23
1000 0 1 0.23
1000 0 1 0.23
1000 0 1 0.23
1000 0 1 0.23
1000 0 1 0.23
1000 0 1 0.23
1000 0 1 0.23
1000 0 1 0.23
1000 0 1 0.23
1000 0 1 0.23
1000 0 1 0.23
1000 0 1 0.23
1000 0 1 0.23
1000 0 1 0.23
1000 0 1 0.23
1000 0 1 0.23
1000 0 1 0.23
1000 0 1 0.23
1000 0 1 0.23
1000 0 1 0.23
1000 0 1 0.23
1000 0 1 0.23
1000 0 1 0.23
1000 0 1 0.23
1000 0 1 0.23
1000 0 1 0.23
1000 0 1 0.23
1000 0 1 0.23
1000 0 1 0.23
1000 0 1 0.23
1000 0 1 0.23
1000 0 1 0.23
1000 0 1 0.23
1000 0 1 0.23
1000 0 1 0.23
1000 0 1 0.23
1000 0 1 0.23
1000 0 1 0.23
1000 0 1 0.23
1000 0 1 0.23
1000 0 1 0.23
1000 0 1 0.23
1000 0 1 0.23
1000 0 1 0.23
1000 0 1 0.23
1000 0 1 0.23
1000 0 1 0.23
1000 0 1 0.23
1000 0 1 0.23
1000 0 1 0.23
1000 0 1 0.23
1000 0 1 0.23
1000 0 1 0.23
1000 0 1 0.23
1000 0 1 0.23
1000 0 1 0.23
1000 0 1 0.23
1000 0 1 0.23
1000 0 1 0.23
1000 0 1 0.23
1000 0 1 0.23
1000 0 1 0.23
1000 0 1 0.23
1000 0 1 0.23
1000 0 1 0.23
1000 0 1 0.23
1000 0 1 0.23
1000 0 1 0.23
1000 0 1 0.23
1000 0 1 0.23
1000 0 1 0.23
1000 0 1 0.23
1000 0 1 0.23
1000 0 1 0.23
1000 0 1 0.23
1000 0 1 0.23
1000 0 1 0.23
1000 0 1 0.23
1000 0 1 0.23
1000 0 1 0.23
1000 0 1 0.23
1000 0 1 0.23
1000 0 1 0.23
1000 0 1 0.23
1000 0 1 0.23
1000 0 1 0.23
1000 0 1 0.23
1000 0 1 0.23
1000 0 1 0.23
1000 0 1 0.23
1000 0 1 0.23
1000 0 1 0.23
1000 0 1 0.23
1000 0 1 0.23
1000 0 1 0.23
1000 0 1 0.23
1000 0 1 0.23
1000 0 1 0.23
1000 0 1 0.23
1000 0 1 0.23
1000 0 1 0.23
1000 0 1 0.23
1000 0 1 0.23
1000 0 1 0.23
1000 0 1 0.23
1000 0 1 0.23
1000 0 1 0.23
1000 0 1 0.23
1000 0 1 0.23
1000 0 1 0.23
1000 0 1 0.23
1000 0 1 0.23
1000 0 1 0.23
1000 0 1 0.23
1000 0 1 0.23
1000 0 1 0.23
1000 0 1 0.23
1000 0 1 0.23
1000 0 1 0.23
1000 0 1 0.23
1000 0 1 0.23
1000 0 1 0.23
1000 0 1 0.23
1000 0 1 0.23
1000 0 1 0.23
1000 0 1 0.23
1000 0 1 0.23
1000 0 1 0.23
1000 0 1 0.23
1000 0 1 0.23
1000 0 1 0.23
1000 0 1 0.23
1000 0 1 0.23
1000 0 1 0.23
1000 0 1 0.23
1000 0 1 0.23
1000 0 1 0.23
1000 0 1 0.23
1000 0 1 0.23
1000 0 1 0.23
1000 0 1 0.23
1000 0 1 0.23
1000 0 1 0.23
1000 0 1 0.23
1000 0 1 0.23
1000 0 1 0.23
1000 0 1 0.23
1000 0 1 0.23
1000 0 1 0.23
1000 0 1 0.23
1000 0 1 0.23
1000 0 1 0.23
1000 0 1 0.23
1000 0 1 0.23
1000 0 1 0.23
1000 0 1 0.23
1000 0 1 0.23
1000 0 1 0.23
1000 0 1 0.23
1000 0 1 0.23
1000 0 1 0.23
1000 0 1 0.23
1000 0 1 0.23
1000 0 1 0.23
1000 0 1 0.23
1000 0 1 0.23
1000 0 1 0.23
1000 0 1 0.23
1000 0 1 0.23
1000 0 1 0.23
1000 0 1 0.23
1000 0 1 0.23
1000 0 1 0.23
1000 0 1 0.23
1000 0 1 0.23
1000 0 1 0.23
1000 0 1 0.23
1000 0 1 0.23
1000 0 1 0.23
1000 0 1 0.23
1000 0 1 0.23
1000 0 1 0.23
1000 0 1 0.23
1000 0 1 0.23
1000 0 1 0.23
1000 0 1 0.23
1000 0 1 0.23
1000 0 1 0.23
1000 0 1 0.23
1000 0 1 0.23
1000 0 1 0.23
1000 0 1 0.23
1000 0 1 0.23
1000 0 1 0.23
1000 0 1 0.23
1000 0 1 0.23
1000 0 1 0.23
1000 0 1 0.23
1000 0 1 0.23
1000 0 1 0.23
1000 0 1 0.23
1000 0 1 0.23
1000 0 1 0.23
1000 0 1 0.23
1000 0 1 0.23
1000 0 1 0.23
1000 0 1 0.23
1000 0 1 0.23
1000 0 1 0.23
1000 0 1 0.23
1000 0 1 0.23
1000 0 1 0.23
1000 0 1 0.23
1000 0 1 0.23
1000 0 1 0.23
1000 0 1 0.23
1000 0 1 0.23
1000 0 1 0.23
1000 0 1 0.23
1000 0 1 0.23
1000 0 1 0.23
1000 0 1 0.23
1000 0 1 0.23
1000 0 1 0.23
1000 0 1 0.23
1000 0 1 0.23
1000 0 1 0.23
1000 0 1 0.23
1000 0 1 0.23
1000 0 1 0.23
1000 0 1 0.23
1000 0 1 0.23
1000 0 1 0.23
1000 0 1 0.23
1000 0 1 0.23
1000 0 1 0.23
1000 0 1 0.23
1000 0 1 0.23
1000 0 1 0.23
1000 0 1 0.23
1000 0 1 0.23
1000 0 1 0.23
1000 0 1 0.23
1000 0 1 0.23
1000 0 1 0.23
1000 0 1 0.23
1000 0 1 0.23
1000 0 1 0.23
1000 0 1 0.23
1000 0 1 0.23
1000 0 1 0.23
1000 0 1 0.23
1000 0 1 0.23
1000 0 1 0.23
1000 0 1 0.23
1000 0 1 0.23
1000 0 1 0.23
1000 0 1 0.23
1000 0 1 0.23
1000 0 1 0.23
1000 0 1 0.23
1000 0 1 0.23
1000 0 1 0.23
1000 0 1 0.23
1000 0 1 0.23
1000 0 1 0.23
1000 0 1 0.23
1000 0 1 0.23
1000 0 1 0.23
1000 0 1 0.23
1000 0 1 0.23
1000 0 1 0.23
1000 0 1 0.23
1000 0 1 0.23
1000 0 1 0.23
1000 0 1 0.23
1000 0 1 0.23
1000 0 1 0.23
1000 0 1 0.23
1000 0 1 0.23
1000 0 1 0.23
1000 0 1 0.23
1000 0 1 0.23
1000 0 1 0.23
1000 0 1 0.23
1000 0 1 0.23
1000 0 1 0.23
1000 0 1 0.23
1000 0 1 0.23
1000 0 1 0.23
1000 0 1 0.23
1000 0 1 0.23
1000 0 1 0.23
1000 0 1 0.23
1000 0 1 0.23
1000 0 1 0.23
1000 0 1 0.23
1000 0 1 0.23
1000 0 1 0.23
1000 0 1 0.23
1000 0 1 0.23
1000 0 1 0.23
1000 0 1 0.23
1000 0 1 0.23
1000 0 1 0.23
1000 0 1 0.23
1000 0 1 0.23
1000 0 1 0.23
1000 0 1 0.23
1000 0 1 0.23
1000 0 1 0.23
1000 0 1 0.23
1000 0 1 0.23
1000 0 1 0.23
1000 0 1 0.23
1000 0 1 0.23
1000 0 1 0.23
1000 0 1 0.23
1000 0 1 0.23
1000 0 1 0.23
1000 0 1 0.23
1000 0 1 0.23
1000 0 1 0.23
1000 0 1 0.23
0 0.0001 0.715 0.25
0 0.0001 0.43 0.27
1000 0 1 0.23
1000 0 1 0.23
1000 0 1 0.23
1000 0 1 0.23
1000 0 1 0.23
1000 0 1 0.23
1000 0 1 0.23
1000 0 1 0.23
1000 0 1 0.23
1000 0 1 0.23
1000 0 1 0.23
1000 0 1 0.23
1000 0 1 0.23
1000 0 1 0.23
1000 0 1 0.23
1000 0 1 0.23
1000 0 1 0.23
1000 0 1 0.23
1000 0 1 0.23
1000 0 1 0.23
1000 0 1 0.23
1000 0 1 0.23
1000 0 1 0.23
1000 0 1 0.23
1000 0 1 0.23
1000 0 1 0.23
1000 0 1 0.23
1000 0 1 0.23
1000 0 1 0.23
1000 0 1 0.23
1000 0 1 0.23
1000 0 1 0.23
1000 0 1 0.23
1000 0 1 0.23
1000 0 1 0.23
1000 0 1 0.23
1000 0 1 0.23
1000 0 1 0.23
1000 0 1 0.23
1000 0 1 0.23
1000 0 1 0.23
1000 0 1 0.23
1000 0 1 0.23
1000 0 1 0.23
1000 0 1 0.23
1000 0 1 0.23
1000 0 1 0.23
1000 0 1 0.23
1000 0 1 0.23
1000 0 1 0.23
1000 0 1 0.23
1000 0 1 0.23
1000 0 1 0.23
1000 0 1 0.23
1000 0 1 0.23
1000 0 1 0.23
1000 0 1 0.23
1000 0 1 0.23
1000 0 1 0.23
1000 0 1 0.23
1000 0 1 0.23
1000 0 1 0.23
1000 0 1 0.23
1000 0 1 0.23
1000 0 1 0.23
1000 0 1 0.23
1000 0 1 0.23
1000 0 1 0.23
1000 0 1 0.23
1000 0 1 0.23
1000 0 1 0.23
1000 0 1 0.23
1000 0 1 0.23
1000 0 1 0.23
1000 0 1 0.23
1000 0 1 0.23
1000 0 1 0.23
1000 0 1 0.23
1000 0 1 0.23
1000 0 1 0.23
1000 0 1 0.23
1000 0 1 0.23
1000 0 1 0.23
1000 0 1 0.23
1000 0 1 0.23
1000 0 1 0.23
1000 0 1 0.23
1000 0 1 0.23
1000 0 1 0.23
1000 0 1 0.23
1000 0 1 0.23
1000 0 1 0.23
1000 0 1 0.23
1000 0 1 0.23
1000 0 1 0.23
1000 0 1 0.23
1000 0 1 0.23
1000 0 1 0.23
1000 0 1 0.23
1000 0 1 0.23
1000 0 1 0.23
1000 0 1 0.23
1000 0 1 0.23
1000 0 1 0.23
1000 0 1 0.23
0 0.0001 0.715 0.25
0 0.0001 0.43 0.27
1000 0 1 0.23
0 0.0001 0.715 0.25
0 0.0001 0.43 0.27
1000 0 1 0.23
1000 0 1 0.23
1000 0 1 0.23
1000 0 1 0.23
1000 0 1 0.23
1000 0 1 0.23
0 0.0001 0.715 0.25
0 0.0001 0.43 0.27
1000 0 1 0.23
1000 0 1 0.23
1000 0 1 0.23
1000 0 1 0.23
1000 0 1 0.23
1000 0 1 0.23
1000 0 1 0.23
1000 0 1 0.23
1000 0 1 0.23
1000 0 1 0.23
1000 0 1 0.23
1000 0 1 0.23
1000 0 1 0.23
1000 0 1 0.23
1000 0 1 0.23
1000 0 1 0.23
1000 0 1 0.23
1000 0 1 0.23
1000 0 1 0.23
1000 0 1 0.23
1000 0 1 0.23
1000 0 1 0.23
1000 0 1 0.23
1000 0 1 0.23
1000 0 1 0.23
1000 0 1 0.23
1000 0 1 0.23
1000 0 1 0.23
1000 0 1 0.23
1000 0 1 0.23
1000 0 1 0.23
1000 0 1 0.23
1000 0 1 0.23
1000 0 1 0.23
1000 0 1 0.23
1000 0 1 0.23
1000 0 1 0.23
1000 0 1 0.23
1000 0 1 0.23
1000 0 1 0.23
1000 0 1 0.23
1000 0 1 0.23
1000 0 1 0.23
1000 0 1 0.23
1000 0 1 0.23
1000 0 1 0.23
1000 0 1 0.23
1000 0 1 0.23
1000 0 1 0.23
1000 0 1 0.23
1000 0 1 0.23
1000 0 1 0.23
1000 0 1 0.23
1000 0 1 0.23
1000 0 1 0.23
1000 0 1 0.23
1000 0 1 0.23
0 0.0001 0.715 0.25
0 0.0001 0.43 0.27
1000 0 1 0.23
1000 0 1 0.23
1000 0 1 0.23
1000 0 1 0.23
1000 0 1 0.23
1000 0 1 0.23
1000 0 1 0.23
1000 0 1 0.23
1000 0 1 0.23
1000 0 1 0.23
1000 0 1 0.23
1000 0 1 0.23
1000 0 1 0.23
1000 0 1 0.23
1000 0 1 0.23
1000 0 1 0.23
1000 0 1 0.23
1000 0 1 0.23
1000 0 1 0.23
1000 0 1 0.23
1000 0 1 0.23
1000 0 1 0.23
1000 0 1 0.23
1000 0 1 0.23
1000 0 1 0.23
1000 0 1 0.23
1000 0 1 0.23
1000 0 1 0.23
1000 0 1 0.23
1000 0 1 0.23
1000 0 1 0.23
1000 0 1 0.23
1000 0 1 0.23
1000 0 1 0.23
1000 0 1 0.23
0 0.0001 0.715 0.25
1000 0 1 0.23
1000 0 1 0.23
1000 0 1 0.23
1000 0 1 0.23
1000 0 1 0.23
1000 0 1 0.23
1000 0 1 0.23
1000 0 1 0.23
1000 0 1 0.23
0 0.0001 0.715 0.25
0 0.0001 0.43 0.27
1000 0 1 0.23
0 0.0001 0.715 0.25
0 0.0001 0.43 0.27
1000 0 1 0.23
1000 0 1 0.23
1000 0 1 0.23
1000 0 1 0.23
1000 0 1 0.23
1000 0 1 0.23
0 0.0001 0.715 0.25
0 0.0001 0.43 0.27
1000 0 1 0.23
0 0.0001 0.43 0.27
0 0.0001 0.43 0.27
1000 0 1 0.23
1000 0 1 0.23
1000 0 1 0.23
1000 0 1 0.23
1000 0 1 0.23
0 0.0001 0.715 0.25
0 0.0001 0.43 0.27
1000 0 1 0.23
1000 0 1 0.23
1000 0 1 0.23
1000 0 1 0.23
1000 0 1 0.23
1000 0 1 0.23
1000 0 1 0.23
1000 0 1 0.23
1000 0 1 0.23
1000 0 1 0.23
1000 0 1 0.23
1000 0 1 0.23
1000 0 1 0.23
1000 0 1 0.23
1000 0 1 0.23
1000 0 1 0.23
1000 0 1 0.23
1000 0 1 0.23
1000 0 1 0.23
1000 0 1 0.23
1000 0 1 0.23
1000 0 1 0.23
1000 0 1 0.23
1000 0 1 0.23
1000 0 1 0.23
1000 0 1 0.23
1000 0 1 0.23
1000 0 1 0.23
1000 0 1 0.23
1000 0 1 0.23
1000 0 1 0.23
1000 0 1 0.23
1000 0 1 0.23
1000 0 1 0.23
1000 0 1 0.23
1000 0 1 0.23
1000 0 1 0.23
1000 0 1 0.23
1000 0 1 0.23
1000 0 1 0.23
1000 0 1 0.23
1000 0 1 0.23
1000 0 1 0.23
1000 0 1 0.23
1000 0 1 0.23
1000 0 1 0.23
1000 0 1 0.23
1000 0 1 0.23
1000 0 1 0.23
1000 0 1 0.23
1000 0 1 0.23
1000 0 1 0.23
1000 0 1 0.23
0 0.0001 0.715 0.25
0 0.0001 0.43 0.27
1000 0 1 0.23
1000 0 1 0.23
1000 0 1 0.23
1000 0 1 0.23
1000 0 1 0.23
1000 0 1 0.23
0 0.0001 0.715 0.25
0 0.0001 0.43 0.27
1000 0 1 0.23
1000 0 1 0.23
0 0.0001 0.715 0.25
0 0.0001 0.43 0.27
1000 0 1 0.23
1000 0 1 0.23
1000 0 1 0.23
1000 0 1 0.23
1000 0 1 0.23
1000 0 1 0.23
1000 0 1 0.23
1000 0 1 0.23
1000 0 1 0.23
1000 0 1 0.23
1000 0 1 0.23
1000 0 1 0.23
1000 0 1 0.23
1000 0 1 0.23
1000 0 1 0.23
1000 0 1 0.23
1000 0 1 0.23
1000 0 1 0.23
1000 0 1 0.23
1000 0 1 0.23
1000 0 1 0.23
1000 0 1 0.23
1000 0 1 0.23
1000 0 1 0.23
1000 0 1 0.23
1000 0 1 0.23
1000 0 1 0.23
1000 0 1 0.23
1000 0 1 0.23
1000 0 1 0.23
1000 0 1 0.23
0 0.0001 0.43 0.27
0 0.0001 0.715 0.25
1000 0 1 0.23
1000 0 1 0.23
1000 0 1 0.23
1000 0 1 0.23
1000 0 1 0.23
0 0.0001 0.715 0.25
1000 0 1 0.23
1000 0 1 0.23
1000 0 1 0.23
0 0.0001 0.715 0.25
0 0.0001 0.43 0.27
0 0.0001 0.43 0.27
1000 0 1 0.23
0 0.0001 0.43 0.27
0 0.0001 0.43 0.27
1000 0 1 0.23
1000 0 1 0.23
1000 0 1 0.23
1000 0 1 0.23
1000 0 1 0.23
0 0.0001 0.715 0.25
0 0.0001 0.43 0.27
1000 0 1 0.23
0 0.0001 0.43 0.27
0 0.0001 0.43 0.27
1000 0 1 0.23
1000 0 1 0.23
1000 0 1 0.23
0 0.0001 0.715 0.25
0 0.0001 0.43 0.27
1000 0 1 0.23
1000 0 1 0.23