# vtk DataFile Version 2.0
Wound Healing Simulation
ASCII
DATASET UNSTRUCTURED_GRID
POINTS 3012 float
69.9759 18.75 4
67.2507 60.3285 4
69.976 18.75 2
73.0099 25.446 4
71.1327 20.9142 4
68.6801 16.6661 4
67.8274 19.9208 3.98961
67.2507 60.3286 2
71.1327 54.0858 4
68.6801 58.3339 4
65.6939 62.2254 4
65.3138 59.0068 3.99115
74.6784 42.3946 4
73.7221 47.2057 4
69.9759 18.75 0
73.0099 25.446 2
68.6801 16.6661 2
71.1327 20.9142 2
67.8276 19.921 2
74.6792 32.6053 4
73.7222 27.7943 4
72.1454 23.1494 4
70.6168 26.2205 3.98837
68.888 21.9544 3.98911
67.2507 14.6715 4
66.6387 17.9658 3.9904
65.8045 21.0161 3.9856
67.2507 60.3285 0
71.1327 54.0858 2
68.6801 58.3339 2
65.694 62.2255 2
65.3139 59.0068 2
72.1454 51.8506 4
69.9759 56.25 4
68.839 53.1164 3.98916
64.0165 64.0165 4
66.6124 57.1393 3.99059
63.8871 60.7708 3.99187
63.5058 57.7835 3.98651
60.3285 67.2507 4
74.6792 42.3947 2
73.7222 47.2057 2
74.9194 39.9526 4
74.2788 44.8158 4
72.1703 42.0854 3.98794
73.0099 49.554 4
71.252 46.5978 3.98852
73.0099 25.446 0
71.1327 20.9142 0
68.6801 16.6661 0
67.8274 19.9208 0.0103911
74.6792 32.6053 2
73.7222 27.7943 2
67.2508 14.6715 2
72.1455 23.1494 2
70.6169 26.2215 2
66.6388 17.9658 2
68.8882 21.9548 2
65.8046 21.0161 2
74.9197 35.0474 4
74.2794 30.1841 4
72.187 32.9434 3.98834
71.2807 28.4316 3.98834
69.8181 24.0578 3.98871
68.3547 26.9481 3.98344
66.7705 22.9262 3.98511
65.694 12.7746 4
65.3251 16.0975 3.99129
64.7203 19.1835 3.98619
63.8998 22.0212 3.98356
71.1327 54.0858 0
65.6939 62.2254 0
68.6801 58.3339 0
65.3138 59.0068 0.00884689
72.1455 51.8506 2
69.9759 56.25 2
68.8392 53.1161 2
64.0165 64.0165 2
66.6125 57.1394 2
63.8872 60.7708 2
63.5059 57.7836 2
62.2254 65.694 4
58.8939 65.4172 3.99261
69.7718 50.9905 3.9887
67.7859 55.1722 3.98993
66.6582 52.216 3.98527
62.3371 62.4314 3.99231
64.6677 56.0422 3.98665
62.2066 59.4164 3.98679
61.8325 56.698 3.98475
58.3339 68.6801 4
60.3285 67.2508 2
73.7221 47.2057 0
74.6784 42.3946 0
74.9197 39.9526 2
74.2794 44.8159 2
72.1702 42.0848 2
73.0099 49.554 2
71.252 46.597 2
75 37.5 4
72.4073 39.8021 3.98758
71.7849 44.3525 3.98835
69.811 41.7903 3.98232
70.578 48.8139 3.98855
68.9203 46.017 3.98302
74.6792 32.6053 0
73.7222 27.7943 0
67.2507 14.6715 0
72.1454 23.1494 0
70.6168 26.2205 0.0116311
68.888 21.9544 0.0108926
66.6387 17.9658 0.00959787
65.8045 21.0161 0.0143996
74.9197 35.0474 2
74.2794 30.1841 2
72.1869 32.9441 2
71.2807 28.4326 2
65.694 12.7745 2
65.3252 16.0974 2
69.8183 24.0585 2
68.3546 26.9482 2
64.7204 19.1834 2
66.7706 22.9262 2
63.8998 22.0212 2
72.4152 35.2242 3.98785
71.8063 30.6765 3.98853
69.8471 33.2678 3.98271
68.9738 29.0361 3.98284
67.6194 24.9069 3.98438
66.2078 27.6278 3.98142
64.0165 10.9835 4
64.7702 23.8183 3.98317
63.8912 14.3222 3.99189
63.5182 17.4342 3.98678
62.9182 20.304 3.98398
62.1105 22.9247 3.98259
60.6844 11.094 3.99234
57.6127 11.4383 3.98754
72.1454 51.8506 0
69.9759 56.25 0
68.839 53.1164 0.0108438
64.0165 64.0165 0
63.8871 60.7708 0.00812845
66.6124 57.1393 0.00940976
63.5058 57.7835 0.0134916
62.2255 65.694 2
58.8941 65.4173 2
69.7719 50.9899 2
67.7861 55.1721 2
66.6583 52.216 2
62.3372 62.4315 2
64.6678 56.0422 2
62.2066 59.4166 2
61.8326 56.698 2
60.669 63.9805 3.99245
57.0243 66.7376 3.99283
57.5579 63.6988 3.98771
67.5163 50.1817 3.9844
65.7101 54.1822 3.98619
64.5525 51.3971 3.98294
60.7753 60.9488 3.98732
62.8319 55.0838 3.98504
60.6653 58.176 3.9847
60.3406 55.8064 3.98398
56.25 69.9759 4
58.3339 68.6801 2
60.3285 67.2507 0
58.9213 9.65257 3.99258
62.2254 9.30607 4
73.0099 49.554 0
74.2788 44.8158 0
71.252 46.5978 0.011482
72.1703 42.0854 0.012056
74.9194 39.9526 0
75 37.5 2
72.4071 39.8018 2
71.7849 44.3518 2
69.8107 41.7901 2
70.5781 48.813 2
68.9202 46.0166 2
72.4906 37.5121 3.98754
70.0474 39.6577 3.98161
69.4379 43.9087 3.98275
67.6094 41.5001 3.97995
68.2744 48.1105 3.98362
66.7235 45.4452 3.98106
74.9197 35.0474 0
74.2794 30.1841 0
72.187 32.9434 0.0116577
71.2807 28.4316 0.0116628
65.694 12.7746 0
65.3251 16.0975 0.00871257
69.8181 24.0578 0.0112851
68.3547 26.9481 0.0165605
66.7705 22.9262 0.0148877
64.7203 19.1835 0.0138066
63.8998 22.0212 0.016444
72.4151 35.2247 2
71.8062 30.6774 2
69.8468 33.268 2
68.9736 29.0363 2
64.0165 10.9835 2
63.8913 14.3222 2
63.5182 17.4341 2
67.6194 24.9069 2
66.2076 27.6277 2
62.9183 20.3041 2
64.7701 23.8183 2
62.1104 22.925 2
60.6845 11.094 2
57.6127 11.4381 2
70.0645 35.3918 3.9823
69.4746 31.1483 3.98283
67.6678 33.5886 3.98031
66.7852 29.6177 3.98073
65.5378 25.69 3.98237
64.1649 28.2451 3.98075
62.3424 12.6509 3.99218
62.8758 24.6211 3.98241
62.202 15.7724 3.98707
61.8224 18.6674 3.98473
61.2331 21.3213 3.98258
60.4479 23.7056 3.98243
59.2473 12.7687 3.98725
55.8742 10.2255 3.98824
56.4067 13.1007 3.98476
69.7718 50.9905 0.0113037
62.2254 65.694 0
58.8939 65.4172 0.00738914
67.7859 55.1722 0.0100718
66.6582 52.216 0.0147327
62.3371 62.4314 0.00768665
62.2066 59.4164 0.0132052
64.6677 56.0422 0.0133489
61.8325 56.698 0.0152477
60.6691 63.9806 2
57.0245 66.7377 2
57.5579 63.6992 2
67.5163 50.1816 2
65.7103 54.1822 2
64.5526 51.3971 2
60.7753 60.9491 2
62.8321 55.0838 2
60.6654 58.1762 2
60.3407 55.8064 2
55.0698 67.9342 3.99307
59.2204 62.3753 3.98747
55.8037 64.9153 3.98814
56.3283 62.0996 3.98508
65.3467 49.4177 3.98214
63.7199 53.3066 3.9842
62.4624 50.6681 3.98172
59.3377 59.5716 3.9852
61.0928 54.3291 3.9843
59.2986 57.0327 3.98333
59.2569 55.2059 3.98413
48.1019 68.5816 3.98984
50.9478 69.9333 3.99361
54.0858 71.1327 4
56.25 69.976 2
58.3339 68.6801 0
57.0583 8.33268 3.99296
60.3285 7.74928 4
58.9214 9.65253 2
62.2255 9.30602 2
70.578 48.8139 0.011445
71.7849 44.3525 0.011655
68.9203 46.017 0.0169776
69.811 41.7903 0.0176782
72.4073 39.8021 0.0124225
75 37.5 0
72.4904 37.5122 2
70.0471 39.6575 2
69.4377 43.9084 2
67.609 41.5001 2
68.2744 48.1104 2
66.7232 45.4452 2
70.1354 37.5216 3.98162
67.8455 39.5136 3.97926
67.2365 43.4738 3.98054
65.5731 41.2142 3.97923
66.0831 47.4252 3.98158
64.6713 44.8567 3.98036
72.4152 35.2242 0.0121517
71.8063 30.6765 0.0114728
69.8471 33.2678 0.0172912
68.9738 29.0361 0.0171559
64.0165 10.9835 0
63.8912 14.3222 0.00810805
63.5182 17.4342 0.0132217
67.6194 24.9069 0.0156153
66.2078 27.6278 0.0185758
64.7702 23.8183 0.016833
62.9182 20.304 0.016022
62.1105 22.9247 0.0174072
60.6844 11.094 0.0076633
57.6127 11.4383 0.0124613
70.0642 35.3919 2
69.4743 31.1486 2
67.6674 33.5884 2
66.7848 29.6176 2
62.3425 12.6509 2
62.2021 15.7722 2
61.8225 18.6674 2
65.5377 25.69 2
64.1645 28.245 2
61.2331 21.3215 2
62.8756 24.6213 2
60.4476 23.7059 2
59.2473 12.7685 2
56.4067 13.1005 2
55.8743 10.2252 2
67.8823 35.5465 3.98003
67.2782 31.6187 3.98066
65.7151 33.9235 3.97944
64.6811 30.1841 3.97968
63.5572 26.4009 3.98163
62.2809 28.7642 3.9811
60.777 14.2123 3.98716
61.0689 25.3181 3.98231
60.6183 17.1115 3.98522
60.2344 19.7956 3.98341
59.6804 22.2351 3.98163
59.0041 24.2961 3.98279
54.0372 9.12917 3.98902
57.9125 14.3183 3.985
54.7874 12.001 3.98497
55.3149 14.6317 3.98362
67.5163 50.1817 0.0155983
57.0243 66.7376 0.00716895
60.669 63.9805 0.00755124
57.5579 63.6988 0.012289
65.7101 54.1822 0.0138108
64.5525 51.3971 0.0170629
60.7753 60.9488 0.0126777
60.6653 58.176 0.0152976
62.8319 55.0838 0.0149578
60.3406 55.8064 0.0160173
55.07 67.9343 2
59.2204 62.3757 2
55.8037 64.9156 2
56.3283 62.0999 2
65.3467 49.4177 2
63.7201 53.3066 2
62.4624 50.668 2
59.3378 59.5719 2
61.093 54.329 2
59.2988 57.0328 2
59.257 55.2059 2
53.0418 69.0017 3.99335
53.9656 66.0169 3.98862
57.8834 60.8822 3.98518
54.6838 63.2142 3.98529
55.214 60.6271 3.98389
63.2151 48.6746 3.98114
61.7606 52.5936 3.98318
60.2999 50.0389 3.98107
58.0244 58.2784 3.98396
59.3454 53.9701 3.98352
58.1387 55.8359 3.98203
50.1082 67.8598 3.98954
47.462 66.5855 3.98722
46.0559 69.161 3.99007
48.102 68.582 2
48.8022 70.7244 3.99379
50.948 69.9334 2
51.8506 72.1454 4
54.0858 71.1327 2
56.25 69.9759 0
55.1026 7.13742 3.99328
58.3339 6.31992 4
57.0585 8.33259 2
60.3286 7.74926 2
58.9213 9.65257 0.00741574
62.2254 9.30607 0
68.2744 48.1105 0.0163805
69.4379 43.9087 0.0172515
66.7235 45.4452 0.0189386
67.6094 41.5001 0.0200509
70.0474 39.6577 0.0183923
72.4906 37.5121 0.0124628
70.1351 37.5215 2
67.8451 39.5136 2
67.2362 43.4738 2
65.5726 41.2142 2
66.083 47.4252 2
64.6709 44.8567 2
67.9418 37.5221 3.97912
65.8037 39.3726 3.9787
65.1941 43.0316 3.97967
63.7776 40.9355 3.97937
63.9856 46.7274 3.98072
62.8313 44.227 3.98081
70.0645 35.3918 0.0176989
69.4746 31.1483 0.0171687
67.6678 33.5886 0.019689
66.7852 29.6177 0.0192736
62.3424 12.6509 0.00781695
62.202 15.7724 0.0129263
61.8224 18.6674 0.0152668
65.5378 25.69 0.0176254
64.1649 28.2451 0.0192497
62.8758 24.6211 0.0175938
61.2331 21.3213 0.0174225
60.4479 23.7056 0.0175683
59.2473 12.7687 0.0127498
56.4067 13.1007 0.0152407
55.8742 10.2255 0.0117565
67.8818 35.5463 2
67.2778 31.6186 2
65.7146 33.9233 2
64.6806 30.184 2
60.7771 14.2121 2
60.6184 17.1114 2
60.2345 19.7957 2
63.5569 26.4009 2
62.2803 28.7642 2
59.6803 22.2355 2
61.0686 25.3184 2
59.0037 24.2966 2
57.9125 14.3181 2
55.3149 14.6315 2
54.0372 9.12881 2
54.7874 12.0007 2
65.8933 35.6651 3.97916
65.2043 32.1483 3.9795
64.3054 34.2456 3.97883
62.6185 30.6249 3.97971
61.6756 27.0555 3.98147
60.8779 29.1247 3.98264
59.3139 15.6542 3.98519
59.3594 25.7742 3.98337
59.1311 18.3363 3.9843
58.7548 20.8307 3.98209
58.3074 23.067 3.98086
57.9961 24.6396 3.98374
52.1119 8.14792 3.98958
53.058 11.0075 3.98578
56.6796 15.7266 3.98425
53.811 13.6681 3.98323
54.3792 15.9829 3.98347
55.0698 67.9342 0.0069303
65.3467 49.4177 0.0178616
55.8037 64.9153 0.0118647
59.2204 62.3753 0.0125318
56.3283 62.0996 0.0149191
63.7199 53.3066 0.0157973
62.4624 50.6681 0.0182769
59.3377 59.5716 0.0148001
59.2986 57.0327 0.0166727
61.0928 54.3291 0.0157037
59.2569 55.2059 0.0158708
53.042 69.0018 2
53.9657 66.0172 2
57.8835 60.8826 2
54.6838 63.2145 2
55.214 60.6274 2
63.215 48.6745 2
61.7608 52.5936 2
60.2998 50.0387 2
58.0246 58.2786 2
59.3455 53.97 2
58.1389 55.8358 2
52.0691 67.0031 3.98911
52.9525 64.2237 3.98561
56.6524 59.5029 3.98427
[...]
POINT_DATA 3012
SCALARS Jp_lamdaP float 4
LOOKUP_TABLE default
1 1 1 1
1 1 1 1
1 1 1 1
1 1 1 1
1 1 1 1
1 1 1 1
0.99998 1 1 0.99998
1 1 1 1
1 1 1 1
1 1 1 1
1 1 1 1
1 1 1 1
1 1 1 1
1 1 1 1
1 1 1 1
1 1 1 1
1 1 1 1
1 1 1 1
0.999981 1 1 0.999981
1 1 1 1
1 1 1 1
1 1 1 1
0.999957 1 1 0.999957
0.999974 1 1 0.999974
1 1 1 1
0.999986 1 1 0.999986
0.999924 1 1 0.999924
1 1 1 1
1 1 1 1
1 1 1 1
1 1 1 1
1 1 1 1
1 1 1 1
1 1 1 1
0.999991 1 1 0.999991
1 1 1 1
0.999999 1 1 0.999999
1 1 1 1
0.99994 1 1 0.99994
1 1 1 1
1 1 1 1
1 1 1 1
1 1 1 1
1 1 1 1
0.99997 1 1 0.99997
1 1 1 1
0.999979 1 1 0.999979
1 1 1 1
1 1 1 1
1 1 1 1
0.999981 1 1 0.999981
1 1 1 1
1 1 1 1
1 1 1 1
1 1 1 1
0.999957 1 1 0.999957
0.999987 1 1 0.999987
0.999974 1 1 0.999974
0.999922 1 1 0.999922
1 1 1 1
1 1 1 1
0.999972 1 1 0.999972
0.99995 1 1 0.99995
0.999966 1 1 0.999966
0.999867 1 1 0.999867
0.999899 1 1 0.999899
1 1 1 1
0.99999 1 1 0.99999
0.999939 1 1 0.999939
0.999826 1 1 0.999826
1 1 1 1
1 1 1 1
1 1 1 1
1 1 1 1
1 1 1 1
1 1 1 1
0.999992 1 1 0.999992
1 1 1 1
0.999999 1 1 0.999999
1 1 1 1
0.99994 1 1 0.99994
1 1 1 1
1 1 1 1
0.999986 1 1 0.999986
0.999996 1 1 0.999996
0.999891 1 1 0.999891
1 1 1 1
0.999931 1 1 0.999931
0.99995 1 1 0.99995
0.999864 1 1 0.999864
1 1 1 1
1 1 1 1
1 1 1 1
1 1 1 1
1 1 1 1
1 1 1 1
0.999971 1 1 0.999971
1 1 1 1
0.99998 1 1 0.99998
1 1 1 1
0.999967 1 1 0.999967
0.999975 1 1 0.999975
0.999823 1 1 0.999823
0.999982 1 1 0.999982
0.999844 1 1 0.999844
1 1 1 1
1 1 1 1
1 1 1 1
1 1 1 1
0.999958 1 1 0.999958
0.999975 1 1 0.999975
0.999987 1 1 0.999987
0.99992 1 1 0.99992
1 1 1 1
1 1 1 1
0.999959 1 1 0.999959
0.99995 1 1 0.99995
1 1 1 1
0.999995 1 1 0.999995
0.999967 1 1 0.999967
0.999861 1 1 0.999861
0.999937 1 1 0.999937
0.999903 1 1 0.999903
0.999827 1 1 0.999827
0.999969 1 1 0.999969
0.999949 1 1 0.999949
0.999832 1 1 0.999832
0.999843 1 1 0.999843
0.999879 1 1 0.999879
0.999776 1 1 0.999776
1 1 1 1
0.999816 1 1 0.999816
1 1 1 1
0.999944 1 1 0.999944
0.999838 1 1 0.999838
0.999788 1 1 0.999788
1 1 1 1
0.999959 1 1 0.999959
1 1 1 1
1 1 1 1
0.999994 1 1 0.999994
1 1 1 1
1 1 1 1
1 1 1 1
0.999941 1 1 0.999941
1 1 1 1
1 1 1 1
0.999987 1 1 0.999987
0.999997 1 1 0.999997
0.999891 1 1 0.999891
1 1 1 1
0.999931 1 1 0.999931
0.999951 1 1 0.999951
0.999861 1 1 0.999861
1 1 1 1
1 1 1 1
0.999967 1 1 0.999967
0.999871 1 1 0.999871
0.999914 1 1 0.999914
0.999809 1 1 0.999809
0.99996 1 1 0.99996
0.999852 1 1 0.999852
0.99987 1 1 0.99987
0.999829 1 1 0.999829
1 1 1 1
1 1 1 1
1 1 1 1
1 1 1 1
1 1 1 1
1 1 1 1
1 1 1 1
0.999981 1 1 0.999981
0.999973 1 1 0.999973
1 1 1 1
1 1 1 1
0.999967 1 1 0.999967
0.999976 1 1 0.999976
0.999823 1 1 0.999823
0.999983 1 1 0.999983
0.999844 1 1 0.999844
0.999967 1 1 0.999967
0.999815 1 1 0.999815
0.999834 1 1 0.999834
0.99975 1 1 0.99975
0.999856 1 1 0.999856
0.99977 1 1 0.99977
1 1 1 1
1 1 1 1
0.999946 1 1 0.999946
0.999951 1 1 0.999951
1 1 1 1
1 1 1 1
0.999967 1 1 0.999967
0.999855 1 1 0.999855
0.999908 1 1 0.999908
0.999935 1 1 0.999935
0.999827 1 1 0.999827
0.999968 1 1 0.999968
0.999949 1 1 0.999949
0.99982 1 1 0.99982
0.999847 1 1 0.999847
1 1 1 1
1 1 1 1
0.999947 1 1 0.999947
0.999879 1 1 0.999879
0.999769 1 1 0.999769
0.999836 1 1 0.999836
0.99982 1 1 0.99982
0.999789 1 1 0.999789
1 1 1 1
0.99996 1 1 0.99996
0.999816 1 1 0.999816
0.999835 1 1 0.999835
0.99975 1 1 0.99975
0.999745 1 1 0.999745
0.999804 1 1 0.999804
0.99974 1 1 0.99974
1 1 1 1
0.999781 1 1 0.999781
0.999952 1 1 0.999952
0.999852 1 1 0.999852
0.999798 1 1 0.999798
0.999778 1 1 0.999778
0.999957 1 1 0.999957
0.999966 1 1 0.999966
0.999867 1 1 0.999867
0.999988 1 1 0.999988
1 1 1 1
1 1 1 1
0.999998 1 1 0.999998
0.999892 1 1 0.999892
1 1 1 1
0.999951 1 1 0.999951
0.999931 1 1 0.999931
0.999858 1 1 0.999858
1 1 1 1
1 1 1 1
0.999966 1 1 0.999966
0.999871 1 1 0.999871
0.999915 1 1 0.999915
0.999809 1 1 0.999809
0.99996 1 1 0.99996
0.999855 1 1 0.999855
0.999869 1 1 0.999869
0.999825 1 1 0.999825
1 1 1 1
0.999965 1 1 0.999965
0.99997 1 1 0.99997
0.99988 1 1 0.99988
0.999792 1 1 0.999792
0.999835 1 1 0.999835
0.999769 1 1 0.999769
0.999877 1 1 0.999877
0.999817 1 1 0.999817
0.999818 1 1 0.999818
0.9998 1 1 0.9998
0.999986 1 1 0.999986
1 1 1 1
1 1 1 1
1 1 1 1
1 1 1 1
1 1 1 1
1 1 1 1
1 1 1 1
1 1 1 1
0.999984 1 1 0.999984
0.999978 1 1 0.999978
0.999844 1 1 0.999844
0.999823 1 1 0.999823
0.999968 1 1 0.999968
1 1 1 1
0.999966 1 1 0.999966
0.999815 1 1 0.999815
0.999834 1 1 0.999834
0.99975 1 1 0.99975
0.999856 1 1 0.999856
0.99977 1 1 0.99977
0.999813 1 1 0.999813
0.999744 1 1 0.999744
0.999759 1 1 0.999759
0.999726 1 1 0.999726
0.999781 1 1 0.999781
0.999744 1 1 0.999744
0.999967 1 1 0.999967
0.999949 1 1 0.999949
0.999808 1 1 0.999808
0.999851 1 1 0.999851
1 1 1 1
1 1 1 1
0.99995 1 1 0.99995
0.99988 1 1 0.99988
0.999762 1 1 0.999762
0.999824 1 1 0.999824
0.999834 1 1 0.999834
0.999789 1 1 0.999789
1 1 1 1
0.99996 1 1 0.99996
0.999811 1 1 0.999811
0.999835 1 1 0.999835
0.999749 1 1 0.999749
0.999753 1 1 0.999753
1 1 1 1
0.999952 1 1 0.999952
0.999857 1 1 0.999857
0.999804 1 1 0.999804
0.999738 1 1 0.999738
0.999793 1 1 0.999793
0.999782 1 1 0.999782
0.999777 1 1 0.999777
0.999958 1 1 0.999958
0.999864 1 1 0.999864
0.999966 1 1 0.999966
0.999751 1 1 0.999751
0.999746 1 1 0.999746
0.999713 1 1 0.999713
0.999715 1 1 0.999715
0.999768 1 1 0.999768
0.999739 1 1 0.999739
0.999956 1 1 0.999956
0.999775 1 1 0.999775
0.999872 1 1 0.999872
0.999803 1 1 0.999803
0.999767 1 1 0.999767
0.999789 1 1 0.999789
0.999976 1 1 0.999976
0.999872 1 1 0.999872
0.999857 1 1 0.999857
0.999825 1 1 0.999825
0.999871 1 1 0.999871
1 1 1 1
1 1 1 1
0.999966 1 1 0.999966
0.999915 1 1 0.999915
0.999809 1 1 0.999809
0.999961 1 1 0.999961
0.999868 1 1 0.999868
0.999857 1 1 0.999857
0.999821 1 1 0.999821
1 1 1 1
0.999964 1 1 0.999964
0.99997 1 1 0.99997
0.99988 1 1 0.99988
0.999791 1 1 0.999791
0.999836 1 1 0.999836
0.999769 1 1 0.999769
0.999877 1 1 0.999877
0.999821 1 1 0.999821
0.999817 1 1 0.999817
0.999807 1 1 0.999807
1 1 1 1
0.999974 1 1 0.999974
0.999881 1 1 0.999881
0.999881 1 1 0.999881
0.999824 1 1 0.999824
0.999758 1 1 0.999758
0.999795 1 1 0.999795
0.999754 1 1 0.999754
0.999822 1 1 0.999822
0.999796 1 1 0.999796
0.999768 1 1 0.999768
0.999983 1 1 0.999983
0.999905 1 1 0.999905
0.999989 1 1 0.999989
0.999987 1 1 0.999987
1 1 1 1
1 1 1 1
1 1 1 1
1 1 1 1
1 1 1 1
1 1 1 1
1 1 1 1
1 1 1 1
1 1 1 1
1 1 1 1
1 1 1 1
0.999856 1 1 0.999856
0.999834 1 1 0.999834
0.999771 1 1 0.999771
0.99975 1 1 0.99975
0.999815 1 1 0.999815
0.999966 1 1 0.999966
0.999813 1 1 0.999813
0.999744 1 1 0.999744
0.999759 1 1 0.999759
0.999726 1 1 0.999726
0.999781 1 1 0.999781
0.999745 1 1 0.999745
0.999742 1 1 0.999742
0.999725 1 1 0.999725
0.999732 1 1 0.999732
0.999719 1 1 0.999719
0.999755 1 1 0.999755
0.999752 1 1 0.999752
0.999806 1 1 0.999806
0.999835 1 1 0.999835
0.999747 1 1 0.999747
0.999761 1 1 0.999761
1 1 1 1
0.999951 1 1 0.999951
0.999861 1 1 0.999861
0.999805 1 1 0.999805
0.999736 1 1 0.999736
0.999782 1 1 0.999782
0.999787 1 1 0.999787
0.999777 1 1 0.999777
0.999958 1 1 0.999958
0.99986 1 1 0.99986
0.999966 1 1 0.999966
0.999747 1 1 0.999747
0.999746 1 1 0.999746
0.999709 1 1 0.999709
0.999717 1 1 0.999717
0.999956 1 1 0.999956
0.999872 1 1 0.999872
0.999808 1 1 0.999808
0.99977 1 1 0.99977
0.999742 1 1 0.999742
0.999763 1 1 0.999763
0.999775 1 1 0.999775
0.999792 1 1 0.999792
0.999873 1 1 0.999873
0.99982 1 1 0.99982
0.999975 1 1 0.999975
0.999857 1 1 0.999857
0.999713 1 1 0.999713
0.999705 1 1 0.999705
0.999689 1 1 0.999689
0.999712 1 1 0.999712
0.999769 1 1 0.999769
0.999754 1 1 0.999754
0.999876 1 1 0.999876
0.999796 1 1 0.999796
0.999823 1 1 0.999823
0.999768 1 1 0.999768
0.999749 1 1 0.999749
0.999795 1 1 0.999795
0.999983 1 1 0.999983
0.999863 1 1 0.999863
0.999829 1 1 0.999829
0.999805 1 1 0.999805
0.9998 1 1 0.9998
1 1 1 1
0.999791 1 1 0.999791
0.99997 1 1 0.99997
0.999964 1 1 0.999964
0.99988 1 1 0.99988
0.999836 1 1 0.999836
0.999769 1 1 0.999769
0.999878 1 1 0.999878
0.999816 1 1 0.999816
0.999825 1 1 0.999825
0.999814 1 1 0.999814
1 1 1 1
0.999974 1 1 0.999974
0.999881 1 1 0.999881
0.999881 1 1 0.999881
0.999823 1 1 0.999823
0.999758 1 1 0.999758
0.999795 1 1 0.999795
0.999753 1 1 0.999753
0.999822 1 1 0.999822
0.999798 1 1 0.999798
0.999772 1 1 0.999772
0.999979 1 1 0.999979
0.999884 1 1 0.999884
0.999824 1 1 0.999824
0.999822 1 1 0.999822
0.999799 1 1 0.999799
0.999753 1 1 0.999753
0.999775 1 1 0.999775
0.999768 1 1 0.999768
0.999775 1 1 0.999775
0.999745 1 1 0.999745
0.999984 1 1 0.999984
0.999885 1 1 0.999885
0.999899 1 1 0.999899
0.999844 1 1 0.999844
0.999911 1 1 0.999911
0.999991 1 1 0.999991
0.99999 1 1 0.99999
1 1 1 1
0.999988 1 1 0.999988
1 1 1 1
1 1 1 1
1 1 1 1
1 1 1 1
1 1 1 1
1 1 1 1
1 1 1 1
1 1 1 1
1 1 1 1
1 1 1 1
1 1 1 1
0.999781 1 1 0.999781
0.999759 1 1 0.999759
0.999745 1 1 0.999745
0.999725 1 1 0.999725
0.999744 1 1 0.999744
0.999813 1 1 0.999813
0.999742 1 1 0.999742
0.999725 1 1 0.999725
0.999732 1 1 0.999732
0.999718 1 1 0.999718
0.999754 1 1 0.999754
0.999752 1 1 0.999752
0.999721 1 1 0.999721
0.999722 1 1 0.999722
0.999728 1 1 0.999728
0.999711 1 1 0.999711
0.999758 1 1 0.999758
0.999765 1 1 0.999765
0.999743 1 1 0.999743
0.999746 1 1 0.999746
0.999705 1 1 0.999705
0.999719 1 1 0.999719
0.999956 1 1 0.999956
0.999872 1 1 0.999872
0.999813 1 1 0.999813
0.999772 1 1 0.999772
0.999744 1 1 0.999744
0.999776 1 1 0.999776
0.999758 1 1 0.999758
0.999794 1 1 0.999794
0.999873 1 1 0.999873
0.999814 1 1 0.999814
0.999974 1 1 0.999974
0.999858 1 1 0.999858
0.999713 1 1 0.999713
0.999706 1 1 0.999706
0.999686 1 1 0.999686
0.999713 1 1 0.999713
0.999876 1 1 0.999876
0.999827 1 1 0.999827
0.999768 1 1 0.999768
0.999767 1 1 0.999767
0.999762 1 1 0.999762
0.999747 1 1 0.999747
0.999797 1 1 0.999797
0.999803 1 1 0.999803
0.999829 1 1 0.999829
0.999797 1 1 0.999797
0.999804 1 1 0.999804
0.999975 1 1 0.999975
0.999864 1 1 0.999864
0.999698 1 1 0.999698
0.999678 1 1 0.999678
0.999729 1 1 0.999729
0.999785 1 1 0.999785
0.999835 1 1 0.999835
0.999823 1 1 0.999823
0.999791 1 1 0.999791
0.999727 1 1 0.999727
0.999738 1 1 0.999738
0.999974 1 1 0.999974
0.999889 1 1 0.999889
0.999804 1 1 0.999804
0.999808 1 1 0.999808
0.999764 1 1 0.999764
0.999779 1 1 0.999779
1 1 1 1
0.999974 1 1 0.999974
0.999757 1 1 0.999757
0.999881 1 1 0.999881
0.999881 1 1 0.999881
0.999821 1 1 0.999821
0.999795 1 1 0.999795
0.999751 1 1 0.999751
0.999822 1 1 0.999822
0.999776 1 1 0.999776
0.9998 1 1 0.9998
0.999979 1 1 0.999979
0.999884 1 1 0.999884
0.999827 1 1 0.999827
0.999821 1 1 0.999821
0.999796 1 1 0.999796
0.999752 1 1 0.999752
0.999774 1 1 0.999774
0.99977 1 1 0.99977
0.999773 1 1 0.999773
0.999739 1 1 0.999739
0.999888 1 1 0.999888
0.999811 1 1 0.999811
0.999788 1 1 0.999788
0.999783 1 1 0.999783
0.999775 1 1 0.999775
0.9998 1 1 0.9998
0.999742 1 1 0.999742
0.999758 1 1 0.999758
0.999741 1 1 0.999741
0.999688 1 1 0.999688
0.999985 1 1 0.999985
0.999889 1 1 0.999889
0.999818 1 1 0.999818
0.999893 1 1 0.999893
0.999911 1 1 0.999911
0.999835 1 1 0.999835
0.999791 1 1 0.999791
0.999831 1 1 0.999831
0.999916 1 1 0.999916
0.999992 1 1 0.999992
0.999991 1 1 0.999991
1 1 1 1
0.99999 1 1 0.99999
1 1 1 1
1 1 1 1
1 1 1 1
1 1 1 1
1 1 1 1
1 1 1 1
1 1 1 1
1 1 1 1
1 1 1 1
1 1 1 1
1 1 1 1
0.999754 1 1 0.999754
0.999732 1 1 0.999732
0.999753 1 1 0.999753
0.999716 1 1 0.999716
0.999725 1 1 0.999725
0.999742 1 1 0.999742
0.99972 1 1 0.99972
0.999722 1 1 0.999722
0.999726 1 1 0.999726
0.999706 1 1 0.999706
0.999759 1 1 0.999759
0.99977 1 1 0.99977
0.999726 1 1 0.999726
0.999719 1 1 0.999719
0.999725 1 1 0.999725
0.999802 1 1 0.999802
0.999714 1 1 0.999714
0.999707 1 1 0.999707
0.999683 1 1 0.999683
0.999714 1 1 0.999714
0.999876 1 1 0.999876
0.999831 1 1 0.999831
0.999767 1 1 0.999767
0.999765 1 1 0.999765
0.999769 1 1 0.999769
0.999797 1 1 0.999797
0.999745 1 1 0.999745
0.99981 1 1 0.99981
0.999829 1 1 0.999829
0.999795 1 1 0.999795
0.999803 1 1 0.999803
0.999967 1 1 0.999967
0.999866 1 1 0.999866
0.999694 1 1 0.999694
0.999682 1 1 0.999682
0.999732 1 1 0.999732
0.999835 1 1 0.999835
0.999797 1 1 0.999797
0.999726 1 1 0.999726
0.999782 1 1 0.999782
0.999747 1 1 0.999747
0.999821 1 1 0.999821
0.999974 1 1 0.999974
0.999807 1 1 0.999807
0.999782 1 1 0.999782
0.999767 1 1 0.999767
0.999807 1 1 0.999807
0.999882 1 1 0.999882
0.999689 1 1 0.999689
0.999678 1 1 0.999678
0.99976 1 1 0.99976
0.99982 1 1 0.99982
0.999809 1 1 0.999809
0.999777 1 1 0.999777
0.999744 1 1 0.999744
0.999696 1 1 0.999696
0.99998 1 1 0.99998
0.999901 1 1 0.999901
0.999821 1 1 0.999821
0.999746 1 1 0.999746
0.999783 1 1 0.999783
0.999748 1 1 0.999748
0.99998 1 1 0.99998
0.999884 1 1 0.999884
0.999751 1 1 0.999751
0.999821 1 1 0.999821
0.99983 1 1 0.99983
0.999792 1 1 0.999792
0.999772 1 1 0.999772
0.999772 1 1 0.999772
0.99977 1 1 0.99977
0.999734 1 1 0.999734
0.999888 1 1 0.999888
0.999814 1 1 0.999814
0.999793 1 1 0.999793
0.999786 1 1 0.999786
0.999778 1 1 0.999778
0.999803 1 1 0.999803
0.999744 1 1 0.999744
0.999773 1 1 0.999773
0.999737 1 1 0.999737
0.999683 1 1 0.999683
0.999812 1 1 0.999812
0.999764 1 1 0.999764
0.999755 1 1 0.999755
0.999755 1 1 0.999755
0.999811 1 1 0.999811
0.999801 1 1 0.999801
0.999687 1 1 0.999687
0.999779 1 1.00012 0.999664
0.999894 1 1 0.999894
0.999823 1 1 0.999823
0.999781 1 1 0.999781
0.999911 1 1 0.999911
0.999827 1 1 0.999827
0.999916 1 1 0.999916
0.999785 1 1 0.999785
0.999835 1 1 0.999835
0.999753 1 1 0.999753
0.999781 1 1 0.999781
0.999835 1 1 0.999835
0.999918 1 1 0.999918
0.999993 1 1 0.999993
0.999993 1 1 0.999993
1 1 1 1
0.999992 1 1 0.999992
1 1 1 1
1 1 1 1
1 1 1 1
1 1 1 1
1 1 1 1
1 1 1 1
1 1 1 1
1 1 1 1
1 1 1 1
1 1 1 1
1 1 1 1
0.999759 1 1 0.999759
0.999724 1 1 0.999724
0.999775 1 1 0.999775
0.9997 1 1 0.9997
0.999722 1 1 0.999722
0.99972 1 1 0.99972
0.999723 1 1 0.999723
0.999719 1 1 0.999719
0.99973 1 1 0.99973
0.999799 1 1 0.999799
0.999723 1 1 0.999723
0.999726 1 1 0.999726
0.99977 1 1 0.99977
0.999691 1 1 0.999691
0.999686 1 1 0.999686
0.999735 1 1 0.999735
0.999834 1 1 0.999834
0.999802 1 1 0.999802
0.999725 1 1 0.999725
0.999779 1 1 0.999779
0.999819 1 1 0.999819
0.999757 1 1 0.999757
0.999807 1 1 0.999807
0.999785 1 1 0.999785
0.999769 1 1 0.999769
0.999974 1 1 0.999974
0.999809 1 1 0.999809
0.999876 1 1 0.999876
0.999695 1 1 0.999695
0.999676 1 1 0.999676
0.999755 1 1 0.999755
0.999808 1 1 0.999808
0.999749 1 1 0.999749
0.9997 1 1 0.9997
0.999825 1 1 0.999825
0.999776 1 1 0.999776
0.999987 1 1 0.999987
0.999901 1 1 0.999901
0.999782 1 1 0.999782
0.999749 1 1 0.999749
0.99975 1 1 0.99975
0.999816 1 1 0.999816
0.999707 1 1 0.999707
0.99969 1 1 0.99969
0.999825 1 1 0.999825
0.999833 1 1 0.999833
0.999773 1 1 0.999773
0.999706 1 1.00001 0.999692
0.999707 1 1 0.999707
0.999997 1 1 0.999997
0.999935 1 1 0.999935
0.999905 1 1 0.999905
0.99982 1 1 0.99982
0.999756 1 1 0.999756
0.999715 1 1 0.999715
0.999762 1 1 0.999762
0.999724 1 1 0.999724
0.999888 1 1 0.999888
0.999817 1 1 0.999817
0.999807 1 1 0.999807
0.99979 1 1 0.99979
0.999797 1 1 0.999797
0.99978 1 1 0.99978
0.999746 1 1 0.999746
0.999787 1 1 0.999787
0.999733 1 1 0.999733
0.999678 1 1 0.999678
0.999811 1 1 0.999811
0.999769 1 1 0.999769
0.999759 1 1 0.999759
0.999758 1 1 0.999758
0.999812 1 1 0.999812
0.999798 1 1 0.999798
0.999693 1 1 0.999693
0.999679 1 1.00002 0.999662
0.999773 1 1 0.999773
0.999778 1 1 0.999778
0.999737 1 1 0.999737
0.999717 1 1 0.999717
0.999829 1 1 0.999829
0.999674 1 1 0.999674
0.999861 1 1.00023 0.99963
0.999827 1 1 0.999827
0.999781 1 1 0.999781
0.999748 1 1 0.999748
0.999916 1 1 0.999916
0.999838 1 1 0.999838
0.999779 1 1 0.999779
0.999918 1 1 0.999918
0.999835 1 1 0.999835
0.999748 1 1 0.999748
0.999787 1 1 0.999787
0.999725 1 1 0.999725
0.999741 1 1 0.999741
0.99979 1 1 0.99979
0.999841 1 1 0.999841
0.999917 1 1 0.999917
0.999992 1 1 0.999992
0.999993 1 1 0.999993
1 1 1 1
0.999993 1 1 0.999993
1 1 1 1
1 1 1 1
1 1 1 1
1 1 1 1
1 1 1 1
0.999999 1 1 0.999999
1 1 1 1
1 1 1 1
1 1 1 1
1 1 1 1
1 1 1 1
1 1 1 1
0.999796 1 1 0.999796
0.999734 1 1 0.999734
0.999718 1 1 0.999718
0.999719 1 1 0.999719
0.999728 1 1 0.999728
0.999722 1 1 0.999722
0.99978 1 1 0.99978
0.999733 1 1 0.999733
0.999739 1 1 0.999739
0.999812 1 1 0.999812
0.999701 1 1 0.999701
0.999674 1 1 0.999674
0.999749 1 1 0.999749
0.999808 1 1 0.999808
0.999755 1 1 0.999755
0.999704 1 1 0.999704
0.999829 1 1 0.999829
0.999775 1 1 0.999775
0.999782 1 1 0.999782
0.99975 1 1 0.99975
0.999754 1 1 0.999754
0.999993 1 1 0.999993
0.999901 1 1 0.999901
0.999812 1 1 0.999812
0.999704 1 1 0.999704
0.999996 1 1 0.999996
0.99993 1 1 0.99993
0.999692 1 1 0.999692
0.999814 1 1 0.999814
0.999775 1 1 0.999775
0.999701 1 1 0.999701
0.999695 1 1 0.999695
0.999831 1 1 0.999831
0.999917 1 1 0.999917
0.99982 1 1 0.99982
0.999764 1 1 0.999764
0.99973 1 1 0.99973
0.999708 1 1 0.999708
0.999758 1 1 0.999758
0.999688 1 1 0.999688
0.999756 1 1 0.999756
0.999789 1 0.999899 0.99989
0.999746 1 1 0.999746
0.999746 1 1 0.999746
1.00001 1 1.00036 0.999659
0.999933 1 1 0.999933
0.999927 1 1 0.999927
0.999871 1 1 0.999871
0.999822 1 1 0.999822
0.999768 1 1 0.999768
0.999703 1 1 0.999703
0.999677 1 1 0.999677
0.999728 1 1 0.999728
0.999811 1 1 0.999811
0.999774 1 1 0.999774
0.999814 1 1 0.999814
0.999794 1 1 0.999794
0.999761 1 1 0.999761
0.999764 1 1 0.999764
0.9997 1 1 0.9997
0.999661 1 1 0.999661
0.999773 1 1 0.999773
0.999794 1 1 0.999794
0.999736 1 1 0.999736
0.99971 1 1 0.99971
0.999826 1 1 0.999826
0.999675 1 1 0.999675
0.999859 1 1.00023 0.999628
0.999737 1 1 0.999737
0.999453 1.00001 0.999627 0.999812
0.999713 1 1 0.999713
0.999956 1 1.0003 0.999652
0.999674 1 1 0.999674
1.00044 1 1.00084 0.999598
0.984777 1.00348 0.981738 0.999616
0.999781 1 1 0.999781
0.999748 1 1 0.999748
0.999724 1 1 0.999724
0.999918 1 1 0.999918
0.999835 1 1 0.999835
0.999794 1 1 0.999794
0.999744 1 1 0.999744
0.999917 1 1 0.999917
0.999837 1 1 0.999837
0.999724 1 1 0.999724
0.99979 1 1 0.99979
0.999746 1 1 0.999746
0.999707 1 1 0.999707
0.999749 1 1 0.999749
0.999791 1 1 0.999791
0.999829 1 1 0.999829
0.999904 1 1 0.999904
0.999848 1 1 0.999848
0.999903 1 1 0.999903
0.999992 1 1 0.999992
0.999992 1 1 0.999992
1 1 1 1
0.999993 1 1 0.999993
1 1 1 1
1 1 1 1
1 1 1 1
1 1 1 1
1 1 1 1
1 1 1 1
0.999999 1 1 0.999999
1 1 1 1
1 1 1 1
1 1 1 1
1 1 1 1
1 1 1 1
1 1 1 1
0.999789 1 1 0.999789
0.999718 1 1 0.999718
0.999733 1 1 0.999733
0.999734 1 1 0.999734
0.999742 1 1 0.999742
0.999821 1 1 0.999821
0.999751 1 1 0.999751
0.995727 1.00045 0.995401 0.999874
0.999607 1 0.999705 0.999901
0.999949 1 1 0.999949
0.9997 1 1 0.9997
0.999694 1 1 0.999694
0.999802 1 1 0.999802
0.999778 1 1 0.999778
0.999695 1 1 0.999695
0.999697 1 1 0.999697
0.999829 1 1 0.999829
0.999766 1 1 0.999766
0.999736 1 1 0.999736
0.999701 1 1 0.999701
0.999995 1 1 0.999995
0.999759 1 1 0.999759
0.999929 1 1 0.999929
0.999819 1 1 0.999819
0.999925 1 1 0.999925
0.99968 1 1 0.99968
0.999938 1 1 0.999938
0.999927 1 1 0.999927
0.999861 1 1 0.999861
0.999758 1 1 0.999758
0.999666 1 0.999791 0.999874
0.999748 1 1 0.999748
0.999875 1 1.00022 0.999657
0.999748 1 1 0.999748
0.999829 1 1 0.999829
0.999766 1 1 0.999766
0.999728 1 1 0.999728
0.999708 1 1.00002 0.999684
0.999708 1 1 0.999708
0.999712 1 1.00004 0.999667
0.997515 1 0.99765 0.999864
0.999797 1 0.999996 0.999801
0.999915 1 1.00025 0.999668
1.00003 1 1.00032 0.999709
0.999862 1 1 0.999862
0.999839 1 1 0.999839
0.999809 1 1 0.999809
0.999766 1 1 0.999766
0.999724 1 1 0.999724
0.999671 1 1 0.999671
1.00124 1 1.00157 0.999666
0.999772 1 1 0.999772
0.999736 1 1 0.999736
0.999811 1 1 0.999811
0.999822 1 1 0.999822
0.999676 1 1 0.999676
0.999702 1 1 0.999702
0.999747 1 1.00012 0.999625
0.99974 1 1 0.99974
0.99962 1.00006 0.99974 0.999821
0.999712 1 1 0.999712
0.999811 1 1.00016 0.999651
0.999688 1 1 0.999688
1.001 1 1.0014 0.999596
0.98929 1.00616 0.983584 0.999647
0.999715 1 1 0.999715
0.999967 1.00032 1 0.999644
0.999686 1 1 0.999686
1.00221 1 1.00261 0.999608
1.00042 1 1.00084 0.999579
0.962535 0.963851 1.00004 0.998595
0.987445 1.00121 0.986562 0.999683
0.984677 1.00805 0.977222 0.999579
0.964081 0.970979 0.993096 0.999799