# vtk DataFile Version 2.0
Wound Healing Simulation
ASCII
DATASET UNSTRUCTURED_GRID
POINTS 3012 float
69.9759 18.75 4
67.2507 60.3285 4
69.976 18.75 2
73.0099 25.446 4
71.1327 20.9142 4
68.6801 16.6661 4
67.8273 19.9256 3.98639
67.2507 60.3286 2
71.1327 54.0858 4
68.6801 58.3339 4
65.6939 62.2254 4
65.3138 59.0032 3.98741
74.6784 42.3946 4
73.7221 47.2057 4
69.9759 18.75 0
73.0099 25.446 2
68.6801 16.6661 2
71.1327 20.9142 2
67.8278 19.9276 2
74.6792 32.6053 4
73.7222 27.7943 4
72.1454 23.1494 4
70.6153 26.2221 3.98528
68.8874 21.9587 3.98609
67.2507 14.6715 4
66.6389 17.9703 3.98702
65.8017 21.0232 3.9801
67.2507 60.3285 0
71.1327 54.0858 2
68.6801 58.3339 2
65.694 62.2255 2
65.3146 59.002 2
72.1454 51.8506 4
69.9759 56.25 4
68.8379 53.1128 3.98551
64.0165 64.0165 4
66.6124 57.1352 3.98706
63.8872 60.768 3.98895
63.5043 57.7768 3.98219
60.3285 67.2507 4
74.6792 42.3947 2
73.7222 47.2057 2
74.9194 39.9526 4
74.2788 44.8158 4
72.1688 42.0857 3.98351
73.0099 49.554 4
71.2504 46.5979 3.98476
73.0099 25.446 0
71.1327 20.9142 0
68.6801 16.6661 0
67.8273 19.9256 0.0136109
74.6792 32.6053 2
73.7222 27.7943 2
67.2508 14.6715 2
72.1455 23.1494 2
70.6154 26.2227 2
66.6397 17.9718 2
68.8876 21.9605 2
65.8015 21.0229 2
74.9197 35.0474 4
74.2794 30.1841 4
72.1855 32.9434 3.98393
71.2793 28.432 3.98521
69.817 24.0609 3.98559
68.3497 26.9519 3.97667
66.7665 22.9327 3.97855
65.694 12.7746 4
65.3255 16.1011 3.98818
64.7186 19.1908 3.98166
63.8933 22.0317 3.97642
71.1327 54.0858 0
65.6939 62.2254 0
68.6801 58.3339 0
65.3138 59.0032 0.0125875
72.1455 51.8506 2
69.9759 56.25 2
68.8382 53.1108 2
64.0165 64.0165 2
66.6132 57.1334 2
63.8879 60.7675 2
63.5045 57.7776 2
62.2254 65.694 4
58.895 65.4154 3.99258
69.7703 50.9882 3.98508
67.7854 55.1679 3.9863
66.6531 52.2104 3.97786
62.3374 62.4292 3.99068
64.6654 56.0355 3.98183
62.2059 59.4102 3.98302
61.8288 56.6888 3.97921
58.3339 68.6801 4
60.3285 67.2508 2
73.7221 47.2057 0
74.6784 42.3946 0
74.9197 39.9526 2
74.2794 44.8159 2
72.1687 42.0857 2
73.0099 49.554 2
71.2504 46.5976 2
75 37.5 4
72.4059 39.8023 3.98316
71.7834 44.3529 3.98424
69.8059 41.7901 3.97507
70.5763 48.8129 3.98494
68.9151 46.0154 3.97613
74.6792 32.6053 0
73.7222 27.7943 0
67.2507 14.6715 0
72.1454 23.1494 0
70.6153 26.2221 0.0147226
68.8874 21.9587 0.0139097
66.6389 17.9703 0.0129758
65.8017 21.0232 0.0199029
74.9197 35.0474 2
74.2794 30.1841 2
72.1853 32.9434 2
71.2793 28.4321 2
65.694 12.7745 2
65.3262 16.1018 2
69.8171 24.0621 2
68.3495 26.952 2
64.7188 19.1899 2
66.7661 22.9327 2
63.8932 22.0311 2
72.4137 35.2242 3.98318
71.8049 30.6765 3.9848
69.8419 33.2684 3.97547
68.9691 29.0383 3.97681
67.6143 24.9124 3.97711
66.1981 27.6341 3.97343
64.0165 10.9835 4
64.7616 23.8283 3.9749
63.8915 14.3248 3.98944
63.5176 17.4409 3.9834
62.9139 20.3143 3.97782
62.0997 22.9384 3.97441
60.6849 11.0958 3.99142
57.6134 11.4416 3.98619
72.1454 51.8506 0
69.9759 56.25 0
68.8379 53.1128 0.0144941
64.0165 64.0165 0
63.8872 60.768 0.0110499
66.6124 57.1352 0.0129353
63.5043 57.7768 0.0178134
62.2255 65.694 2
58.8954 65.4154 2
69.7704 50.9868 2
67.786 55.1658 2
66.6529 52.2103 2
62.3379 62.4289 2
64.6655 56.0363 2
62.206 59.4111 2
61.8289 56.6898 2
60.6697 63.9784 3.99175
57.0257 66.7362 3.99318
57.559 63.696 3.98711
67.5104 50.1773 3.97651
65.7063 54.1757 3.97989
64.5422 51.3881 3.97387
60.7751 60.9435 3.98424
62.8267 55.0743 3.97893
60.6627 58.1678 3.97951
60.3345 55.7949 3.97807
56.25 69.9759 4
58.3339 68.6801 2
60.3285 67.2507 0
58.922 9.65418 3.99213
62.2254 9.30607 4
73.0099 49.554 0
74.2788 44.8158 0
71.2504 46.5979 0.0152362
72.1688 42.0857 0.0164868
74.9194 39.9526 0
75 37.5 2
72.4058 39.8024 2
71.7834 44.3528 2
69.8057 41.79 2
70.5764 48.8122 2
68.915 46.0152 2
72.4892 37.5121 3.98306
70.0424 39.6577 3.9742
69.4328 43.908 3.97578
67.5997 41.4987 3.97163
68.2687 48.1076 3.97621
66.7135 45.4417 3.97284
74.9197 35.0474 0
74.2794 30.1841 0
72.1855 32.9434 0.01607
71.2793 28.432 0.0147944
65.694 12.7746 0
65.3255 16.1011 0.0118223
69.817 24.0609 0.0144051
68.3497 26.9519 0.0233326
66.7665 22.9327 0.0214532
64.7186 19.1908 0.0183442
63.8933 22.0317 0.0235784
72.4136 35.2241 2
71.8049 30.6765 2
69.8418 33.2686 2
68.9692 29.0384 2
64.0165 10.9835 2
63.892 14.3252 2
63.5179 17.44 2
67.6141 24.9124 2
66.1979 27.634 2
62.914 20.3134 2
64.7613 23.8279 2
62.0996 22.9379 2
60.6853 11.0962 2
57.6135 11.4409 2
70.0591 35.3921 3.97442
69.4697 31.1495 3.97636
67.658 33.5907 3.97188
66.7762 29.6219 3.97338
65.5277 25.6987 3.97358
64.1502 28.2541 3.97273
62.3427 12.653 3.99047
62.862 24.6345 3.97287
62.2021 15.7783 3.98423
61.8201 18.6765 3.97984
61.2253 21.3345 3.97534
60.4323 23.7218 3.97386
59.2476 12.773 3.98459
55.8752 10.2283 3.98763
56.4065 13.1048 3.98297
69.7703 50.9882 0.0149151
62.2254 65.694 0
58.895 65.4154 0.00741846
67.7854 55.1679 0.0136973
66.6531 52.2104 0.0221388
62.3374 62.4292 0.00931917
62.2059 59.4102 0.016982
64.6654 56.0355 0.0181672
61.8288 56.6888 0.0207879
60.6701 63.9782 2
57.026 66.7363 2
57.559 63.6969 2
67.5102 50.177 2
65.7063 54.176 2
64.5421 51.3884 2
60.7752 60.9444 2
62.8269 55.0753 2
60.6629 58.1687 2
60.3348 55.7957 2
55.0711 67.9332 3.99345
59.2207 62.3711 3.98516
55.8056 64.9137 3.98892
56.3283 62.0968 3.98371
65.3353 49.4102 3.9727
63.7119 53.2968 3.97613
62.4461 50.6561 3.97171
59.3362 59.5651 3.98168
61.0843 54.317 3.97785
59.294 57.022 3.97683
59.249 55.1925 3.97927
48.1036 68.5814 3.9902
50.9487 69.9328 3.99387
54.0858 71.1327 4
56.25 69.976 2
58.3339 68.6801 0
57.0591 8.33416 3.99245
60.3285 7.74928 4
58.9224 9.65431 2
62.2255 9.30602 2
70.5763 48.8129 0.0150586
71.7834 44.3529 0.0157632
68.9151 46.0154 0.0238657
69.8059 41.7901 0.0249312
72.4059 39.8023 0.016835
75 37.5 0
72.4891 37.5121 2
70.0424 39.6577 2
69.4328 43.9079 2
67.5996 41.4987 2
68.2686 48.1073 2
66.7134 45.4418 2
70.1305 37.5218 3.97433
67.836 39.5131 3.97083
67.2268 43.4715 3.9723
65.5586 41.2116 3.97081
66.0723 47.4199 3.97297
64.6564 44.8513 3.97182
72.4137 35.2242 0.0168191
71.8049 30.6765 0.0152048
69.8419 33.2684 0.0245295
68.9691 29.0383 0.0231939
64.0165 10.9835 0
63.8915 14.3248 0.0105629
63.5176 17.4409 0.0165953
67.6143 24.9124 0.0228863
66.1981 27.6341 0.0265743
64.7616 23.8283 0.025101
62.9139 20.3143 0.0221845
62.0997 22.9384 0.0255944
60.6849 11.0958 0.00857673
57.6134 11.4416 0.0138137
70.0591 35.3923 2
69.4699 31.1496 2
67.6579 33.5906 2
66.7763 29.6218 2
62.3431 12.6534 2
62.2021 15.7777 2
61.8204 18.6755 2
65.5275 25.6984 2
64.15 28.2539 2
61.2255 21.3338 2
62.8618 24.6342 2
60.4322 23.7214 2
59.2476 12.7725 2
56.4065 13.104 2
55.8753 10.2276 2
67.8721 35.5477 3.9711
67.2689 31.6217 3.97281
65.7005 33.9269 3.97096
64.6674 30.1905 3.97195
63.5416 26.4129 3.9721
62.2614 28.7754 3.97222
60.7772 14.2176 3.9842
61.0494 25.3341 3.9725
60.6173 17.119 3.98171
60.2297 19.8072 3.97745
59.6685 22.2508 3.97356
58.9842 24.3138 3.97459
54.0382 9.1316 3.98829
57.912 14.3237 3.98258
54.7877 12.004 3.98432
55.3139 14.6359 3.98149
67.5104 50.1773 0.023494
57.0257 66.7362 0.00681978
60.6697 63.9784 0.00825423
57.559 63.696 0.0128906
65.7063 54.1757 0.0201092
64.5422 51.3881 0.0261302
60.7751 60.9435 0.0157613
60.6627 58.1678 0.0204947
62.8267 55.0743 0.02107
60.3345 55.7949 0.0219329
55.0713 67.9333 2
59.2207 62.372 2
55.8055 64.9145 2
56.3283 62.0978 2
65.3351 49.4103 2
63.7119 53.2975 2
62.4461 50.6564 2
59.3363 59.5662 2
61.0846 54.3178 2
59.2943 57.0228 2
59.2493 55.1931 2
53.0429 69.0011 3.9937
53.9678 66.0158 3.98956
57.8825 60.8773 3.98266
54.6849 63.2136 3.98542
55.2129 60.6246 3.98198
63.1976 48.6642 3.97101
61.7475 52.581 3.97423
60.277 50.0248 3.97064
58.0215 58.2702 3.97895
59.3342 53.956 3.97718
58.1318 55.8216 3.97482
50.1103 67.8594 3.99008
47.4642 66.5858 3.98792
46.0572 69.1609 3.99037
48.1036 68.5818 2
48.8028 70.7241 3.994
50.949 69.9329 2
51.8506 72.1454 4
54.0858 71.1327 2
56.25 69.9759 0
55.1034 7.13867 3.99273
58.3339 6.31992 4
57.0595 8.33414 2
60.3286 7.74926 2
58.922 9.65418 0.00787456
62.2254 9.30607 0
68.2687 48.1076 0.0237947
69.4328 43.908 0.0242222
66.7135 45.4417 0.027156
67.5997 41.4987 0.028368
70.0424 39.6577 0.025796
72.4892 37.5121 0.0169351
70.1304 37.5218 2
67.836 39.5131 2
67.2268 43.4715 2
65.5585 41.2117 2
66.0722 47.4199 2
64.6563 44.8515 2
67.9324 37.5225 3.97099
65.7893 39.3715 3.97017
65.1795 43.0278 3.97116
63.7588 40.9318 3.97131
63.9696 46.7198 3.97206
62.8117 44.2203 3.97186
70.0591 35.3921 0.0255763
69.4697 31.1495 0.02364
67.658 33.5907 0.028116
66.7762 29.6219 0.0266203
62.3427 12.653 0.0095333
62.2021 15.7783 0.0157729
61.8201 18.6765 0.0201555
65.5277 25.6987 0.026418
64.1502 28.2541 0.0272719
62.862 24.6345 0.0271292
61.2253 21.3345 0.0246633
60.4323 23.7218 0.0261398
59.2476 12.773 0.0154145
56.4065 13.1048 0.0170309
55.8752 10.2283 0.012375
67.8721 35.5477 2
67.269 31.6215 2
65.7005 33.9268 2
64.6675 30.1902 2
60.7772 14.2171 2
60.6173 17.1182 2
60.23 19.8063 2
63.5415 26.4126 2
62.2613 28.7753 2
59.6687 22.2503 2
61.0492 25.3338 2
58.9841 24.3136 2
57.9118 14.3231 2
55.3137 14.6351 2
54.0382 9.13103 2
54.7877 12.0032 2
65.8781 35.667 3.97029
65.1901 32.1531 3.97124
64.2871 34.2496 3.97111
62.6 30.634 3.97199
61.6541 27.0695 3.9715
60.8546 29.1376 3.97239
59.3133 15.6606 3.98243
59.3344 25.7915 3.974
59.1288 18.3457 3.98024
58.7469 20.8447 3.97487
58.2912 23.0847 3.97263
57.9732 24.6586 3.97602
52.1128 8.15016 3.98871
53.0586 11.0104 3.98519
56.6785 15.7327 3.98164
53.8105 13.6707 3.98278
54.3779 15.9874 3.98124
55.0711 67.9332 0.00654652
65.3353 49.4102 0.0273008
55.8056 64.9137 0.0110763
59.2207 62.3711 0.0148353
56.3283 62.0968 0.0162851
63.7119 53.2968 0.0238742
62.4461 50.6561 0.0282898
59.3362 59.5651 0.018321
59.294 57.022 0.023173
61.0843 54.317 0.0221501
59.249 55.1925 0.0207327
53.0432 69.0012 2
53.9677 66.0165 2
57.8825 60.8782 2
54.6848 63.2146 2
55.2129 60.6258 2
63.1974 48.6642 2
61.7478 52.5816 2
60.2771 50.025 2
58.0218 58.2713 2
59.3347 53.9566 2
58.1322 55.822 2
52.0713 67.0024 3.98989
52.9541 64.2239 3.98674
56.6505 59.4974 3.98107
[...]
POINT_DATA 3012
SCALARS rho_c_phif_kappa float 4
LOOKUP_TABLE default
1000 0 1.00075 0.248571
1000 0 1.00067 0.24879
1000 0 1.00075 0.248364
1000 0 1.00075 0.248607
1000 0 1.00075 0.248543
1000 0 1.00075 0.248574
1005.33 6.10917e-09 1.0008 0.248349
1000 0 1.00067 0.248781
1000 0 1.00067 0.248584
1000 0 1.00067 0.248628
1000 0 1.00074 0.248282
1005.32 6.02933e-09 1.00085 0.248173
1000 0 1.00074 0.248665
1000 0 1.00075 0.248614
1000 0 1.00075 0.248166
1000 0 1.00075 0.248523
1000 0 1.00075 0.248342
1000 0 1.00075 0.248382
1005.33 6.11659e-09 1.0008 0.248459
1000 0 1.00067 0.248831
1000 0 1.00074 0.248693
1000 0 1.00075 0.248548
1005.3 6.14756e-09 1.0008 0.248459
1005.32 6.12637e-09 1.0008 0.248402
1000 0 1.00075 0.248506
1005.34 6.09094e-09 1.0008 0.248264
1004.96 5.80126e-09 1.00085 0.248347
1000 0 1.00067 0.248763
1000 0 1.00071 0.24848
1000 0 1.00071 0.248475
1000 0 1.00067 0.248794
1005.32 6.0361e-09 1.00085 0.248187
1000 0 1.00075 0.248348
1000 0 1.00075 0.248268
1005.32 6.13137e-09 1.00081 0.248448
1000 0 1.00067 0.248724
1005.32 6.06236e-09 1.00081 0.248412
1005.34 6.00962e-09 1.00085 0.248282
1004.98 5.83071e-09 1.00085 0.248385
1000 0 1.00067 0.248894
1000 0 1.00067 0.248846
1000 0 1.00071 0.248699
1000 0 1.00067 0.248873
1000 0 1.00074 0.24871
1005.27 6.15299e-09 1.00084 0.248567
1000 0 1.00067 0.248703
1005.3 6.16538e-09 1.00081 0.248536
1000 0 1.00075 0.248453
1000 0 1.00075 0.24822
1000 0 1.00075 0.248122
1005.33 6.10917e-09 1.0008 0.248564
1000 0 1.00071 0.248877
1000 0 1.00074 0.248642
1000 0 1.00075 0.248299
1000 0 1.00075 0.248428
1005.28 6.15389e-09 1.0008 0.248492
1005.34 6.09797e-09 1.0008 0.248384
1005.32 6.13343e-09 1.0008 0.248493
1004.96 5.79905e-09 1.00085 0.248305
1000 0 1.00067 0.24887
1000 0 1.00074 0.248764
1005.26 6.14492e-09 1.00081 0.248591
1005.29 6.15124e-09 1.0008 0.248513
1005.31 6.14e-09 1.0008 0.248424
1004.94 5.76533e-09 1.00085 0.248165
1004.96 5.78824e-09 1.00085 0.248292
1000 0 1.00075 0.248429
1005.36 6.07319e-09 1.0008 0.248214
1004.97 5.81427e-09 1.00085 0.248325
1004.9 5.7046e-09 1.00084 0.247742
1000 0 1.00067 0.248695
1000 0 1.00067 0.248771
1000 0 1.00067 0.248759
1005.32 6.02933e-09 1.00085 0.248202
1000 0 1.00067 0.248655
1000 0 1.00067 0.248713
1005.32 6.13854e-09 1.00085 0.248359
1000 0 1.00071 0.24849
1005.32 6.06959e-09 1.00085 0.248247
1005.34 6.01513e-09 1.00083 0.248338
1004.98 5.82835e-09 1.00085 0.248398
1000 0 1.00067 0.248859
1005.44 6.01054e-09 1.00085 0.248336
1005.32 6.15263e-09 1.00085 0.248493
1005.32 6.09979e-09 1.00085 0.248441
1004.95 5.78372e-09 1.00084 0.248207
1005.37 5.9995e-09 1.00081 0.248422
1004.97 5.81988e-09 1.00085 0.248366
1004.97 5.83686e-09 1.00085 0.248392
1004.91 5.72183e-09 1.00084 0.248159
1000 0 1.00067 0.248925
1000 0 1.00067 0.248889
1000 0 1.00067 0.24874
1000 0 1.00067 0.248843
1000 0 1.00067 0.248867
1000 0 1.00071 0.248766
1005.24 6.16056e-09 1.00083 0.248533
1000 0 1.00071 0.248602
1005.27 6.17177e-09 1.00083 0.248511
1000 0 1.00067 0.248887
1005.26 6.14256e-09 1.00084 0.248506
1005.28 6.16099e-09 1.00081 0.248544
1004.94 5.75727e-09 1.00084 0.247962
1005.31 6.16391e-09 1.00081 0.248447
1004.94 5.75946e-09 1.00084 0.248151
1000 0 1.00074 0.248663
1000 0 1.00074 0.248612
1000 0 1.00074 0.248087
1000 0 1.00075 0.248312
1005.3 6.14756e-09 1.0008 0.248518
1005.32 6.12637e-09 1.0008 0.24858
1005.34 6.09094e-09 1.0008 0.248499
1004.96 5.80126e-09 1.00085 0.248264
1000 0 1.00067 0.248854
1000 0 1.00074 0.248728
1005.24 6.15256e-09 1.00082 0.248529
1005.26 6.15762e-09 1.0008 0.248534
1000 0 1.00071 0.248484
1005.35 6.07885e-09 1.00081 0.248343
1005.3 6.1465e-09 1.0008 0.248487
1004.95 5.76339e-09 1.00085 0.248128
1004.97 5.8121e-09 1.00085 0.248292
1004.96 5.78597e-09 1.00085 0.248274
1004.9 5.70517e-09 1.00084 0.247737
1005.25 6.13979e-09 1.00084 0.248573
1005.28 6.1504e-09 1.0008 0.248537
1004.94 5.75993e-09 1.00085 0.248021
1004.94 5.75969e-09 1.00085 0.248103
1004.95 5.77581e-09 1.00085 0.248206
1004.87 5.67592e-09 1.00084 0.24756
1000 0 1.00067 0.248784
1004.89 5.69474e-09 1.00084 0.247652
1005.38 6.0559e-09 1.00085 0.248161
1004.97 5.82396e-09 1.00085 0.248348
1004.9 5.71515e-09 1.00084 0.247829
1004.91 5.71974e-09 1.00084 0.247218
1005.43 6.0403e-09 1.00085 0.248362
1004.93 5.82584e-09 1.00085 0.248812
1000 0 1.00067 0.248668
1000 0 1.00067 0.24874
1005.32 6.13137e-09 1.00085 0.248367
1000 0 1.00067 0.248807
1005.34 6.00962e-09 1.00085 0.248205
1005.32 6.06236e-09 1.00085 0.248256
1004.98 5.83071e-09 1.00085 0.24841
1000 0 1.00067 0.248854
1005.43 6.01366e-09 1.00085 0.248333
1005.31 6.15914e-09 1.00083 0.248493
1005.32 6.1071e-09 1.00083 0.248439
1004.95 5.78155e-09 1.00084 0.248228
1005.36 6.00382e-09 1.00085 0.248245
1004.97 5.81747e-09 1.00085 0.248392
1004.97 5.83498e-09 1.00085 0.248402
1004.91 5.72206e-09 1.00084 0.248145
1005.41 6.00198e-09 1.00085 0.248304
1005.48 6.02029e-09 1.00085 0.248314
1004.94 5.83151e-09 1.00085 0.248731
1004.94 5.7705e-09 1.00084 0.248206
1004.97 5.80379e-09 1.00085 0.24826
1004.89 5.69145e-09 1.00084 0.247604
1004.96 5.83699e-09 1.00085 0.248559
1004.9 5.71583e-09 1.00084 0.247991
1004.91 5.72873e-09 1.00084 0.248148
1004.93 5.73793e-09 1.00084 0.247701
1000 0 1.00067 0.24895
1000 0 1.00067 0.248919
1000 0 1.00067 0.248884
1005.46 6.04287e-09 1.00085 0.248344
1000 0 1.00067 0.248832
1000 0 1.00067 0.248691
1000 0 1.00067 0.24879
1005.3 6.16538e-09 1.00084 0.248506
1005.27 6.15299e-09 1.00084 0.248552
1000 0 1.00067 0.248881
1000 0 1.00067 0.248882
1005.23 6.15071e-09 1.00084 0.248529
1005.26 6.16786e-09 1.00083 0.248526
1004.95 5.75513e-09 1.00084 0.247967
1005.29 6.17003e-09 1.00084 0.24844
1004.95 5.75743e-09 1.00084 0.248143
1005.25 6.13634e-09 1.00084 0.248544
1004.94 5.75518e-09 1.00084 0.247882
1004.94 5.75918e-09 1.00084 0.248067
1004.86 5.66497e-09 1.00084 0.24748
1004.94 5.76165e-09 1.00084 0.248195
1004.87 5.6733e-09 1.00084 0.247585
1000 0 1.00067 0.248861
1000 0 1.00074 0.248713
1005.26 6.14492e-09 1.00084 0.248595
1005.29 6.15124e-09 1.0008 0.248547
1000 0 1.00067 0.248654
1005.36 6.07319e-09 1.00081 0.248475
1005.31 6.14e-09 1.0008 0.248545
1004.94 5.76533e-09 1.00085 0.24809
1004.96 5.78824e-09 1.00085 0.248263
1004.97 5.81427e-09 1.00085 0.248256
1004.9 5.7046e-09 1.00084 0.247731
1005.23 6.14806e-09 1.00084 0.248551
1005.25 6.15713e-09 1.0008 0.248565
1004.95 5.75785e-09 1.00084 0.248013
1004.95 5.75775e-09 1.00085 0.248109
1000 0 1.00067 0.248792
1005.37 6.06069e-09 1.00083 0.248288
1004.97 5.82174e-09 1.00085 0.24835
1004.95 5.77368e-09 1.00085 0.248182
1004.87 5.67626e-09 1.00084 0.247516
1004.9 5.71568e-09 1.00084 0.247814
1004.89 5.6952e-09 1.00084 0.247663
1004.91 5.71994e-09 1.00084 0.247223
1005.42 6.04419e-09 1.00085 0.248327
1004.94 5.82427e-09 1.00085 0.248773
1004.94 5.75666e-09 1.00084 0.24792
1004.94 5.75975e-09 1.00085 0.248094
1004.86 5.6666e-09 1.00084 0.247558
1004.87 5.6712e-09 1.00084 0.247495
1004.88 5.68514e-09 1.00084 0.247569
1004.88 5.69126e-09 1.00084 0.247088
1005.4 6.04381e-09 1.00085 0.24828
1004.9 5.70954e-09 1.00084 0.24712
1004.96 5.82786e-09 1.00085 0.248519
1004.91 5.72479e-09 1.00084 0.248031
1004.92 5.7299e-09 1.00084 0.247329
1004.9 5.71246e-09 1.00084 0.246681
1004.94 5.82697e-09 1.00085 0.248729
1004.92 5.82281e-09 1.00085 0.248887
1004.92 5.72809e-09 1.00084 0.248602
1005.32 6.15263e-09 1.00085 0.248428
1000 0 1.00067 0.24885
1005.44 6.01054e-09 1.00085 0.248321
1005.32 6.09979e-09 1.00085 0.248308
1004.95 5.78372e-09 1.00084 0.248249
1005.37 5.9995e-09 1.00085 0.24829
1004.97 5.83686e-09 1.00085 0.248415
1004.97 5.81988e-09 1.00085 0.248415
1004.91 5.72183e-09 1.00084 0.248132
1005.4 6.00555e-09 1.00085 0.248325
1005.47 6.02309e-09 1.00085 0.248291
1004.94 5.82989e-09 1.00085 0.248762
1004.95 5.76843e-09 1.00084 0.248208
1004.96 5.80153e-09 1.00085 0.248293
1004.89 5.69206e-09 1.00084 0.247603
1004.96 5.83522e-09 1.00085 0.248563
1004.91 5.71611e-09 1.00084 0.248007
1004.91 5.72911e-09 1.00084 0.24815
1004.93 5.73785e-09 1.00084 0.247657
1005.51 6.03149e-09 1.00085 0.248274
1004.95 5.83363e-09 1.00085 0.248699
1004.93 5.82872e-09 1.00085 0.248788
1004.92 5.73067e-09 1.00084 0.24863
1004.88 5.67157e-09 1.00084 0.247599
1004.9 5.70442e-09 1.00084 0.247732
1004.9 5.71686e-09 1.00084 0.247048
1004.92 5.73229e-09 1.00085 0.248355
1004.92 5.73492e-09 1.00084 0.247418
1004.93 5.74027e-09 1.00085 0.247588
1004.92 5.73898e-09 1.00084 0.247236
1004.89 5.81816e-09 1.00084 0.248694
1005.58 6.05434e-09 1.00085 0.248216
1000 0 1.00067 0.248975
1000 0 1.00067 0.248946
1000 0 1.00067 0.248915
1005.5 6.05271e-09 1.00085 0.248283
1000 0 1.00067 0.248873
1005.46 6.04612e-09 1.00085 0.24835
1000 0 1.00067 0.248834
1005.31 6.16391e-09 1.00084 0.248475
1005.28 6.16099e-09 1.00084 0.248535
1004.94 5.75946e-09 1.00084 0.248137
1004.94 5.75727e-09 1.00084 0.247972
1005.26 6.14256e-09 1.00084 0.248548
1000 0 1.00067 0.248889
1005.21 6.14515e-09 1.00084 0.248542
1004.94 5.75298e-09 1.00084 0.247885
1004.95 5.75705e-09 1.00084 0.248068
1004.86 5.66533e-09 1.00084 0.247476
1004.94 5.75971e-09 1.00084 0.248187
1004.87 5.67355e-09 1.00084 0.247583
1004.94 5.75661e-09 1.00084 0.247874
1004.86 5.6569e-09 1.00084 0.24741
1004.87 5.67032e-09 1.00084 0.247546
1004.88 5.68564e-09 1.00084 0.247114
1004.87 5.67825e-09 1.00084 0.247603
1004.88 5.68725e-09 1.00084 0.247114
1005.25 6.13979e-09 1.00084 0.248522
1005.28 6.1504e-09 1.0008 0.248585
1004.94 5.75993e-09 1.00084 0.248002
1004.94 5.75969e-09 1.00085 0.248114
1000 0 1.00067 0.248807
1005.38 6.0559e-09 1.00081 0.248348
1004.97 5.82396e-09 1.00085 0.248349
1004.95 5.77581e-09 1.00085 0.24816
1004.87 5.67592e-09 1.00084 0.247472
1004.89 5.69474e-09 1.00084 0.247672
1004.9 5.71515e-09 1.00084 0.247798
1004.91 5.71974e-09 1.00084 0.247229
1005.43 6.0403e-09 1.00085 0.248303
1004.93 5.82584e-09 1.00085 0.24874
1004.95 5.75441e-09 1.00084 0.247917
1004.95 5.7579e-09 1.00085 0.248088
1004.86 5.66695e-09 1.00084 0.247537
1004.87 5.67146e-09 1.00084 0.247521
1005.39 6.04813e-09 1.00085 0.248244
1004.96 5.82587e-09 1.00085 0.248506
1004.91 5.72496e-09 1.00084 0.248061
1004.88 5.68556e-09 1.00084 0.247575
1004.88 5.69142e-09 1.00084 0.247047
1004.92 5.7302e-09 1.00084 0.247292
1004.9 5.70971e-09 1.00084 0.247118
1004.9 5.71274e-09 1.00084 0.246666
1004.94 5.82536e-09 1.00085 0.248723
1004.92 5.72837e-09 1.00084 0.248619
1004.92 5.82125e-09 1.00085 0.24884
1004.86 5.66122e-09 1.00084 0.247481
1004.86 5.66663e-09 1.00084 0.247563
1004.88 5.68081e-09 1.00084 0.247221
1004.88 5.68164e-09 1.00084 0.24708
1004.89 5.69811e-09 1.00084 0.247004
1004.87 5.67925e-09 1.00084 0.246707
1004.95 5.82806e-09 1.00085 0.248634
1004.89 5.7022e-09 1.00084 0.246601
1004.92 5.72914e-09 1.00084 0.248383
1004.93 5.73774e-09 1.00084 0.247488
1004.91 5.72813e-09 1.00084 0.246692
1004.9 5.70544e-09 1.00084 0.246137
1004.91 5.81866e-09 1.00085 0.248918
1004.92 5.72764e-09 1.00084 0.248631
1004.92 5.72888e-09 1.00084 0.248696
1004.94 5.75e-09 1.00085 0.248296
1004.94 5.7705e-09 1.00084 0.24821
1005.48 6.02029e-09 1.00085 0.248264
1005.41 6.00198e-09 1.00085 0.248355
1004.94 5.83151e-09 1.00085 0.248801
1004.97 5.80379e-09 1.00085 0.248323
1004.89 5.69145e-09 1.00084 0.247601
1004.96 5.83699e-09 1.00085 0.248563
1004.91 5.72873e-09 1.00084 0.24815
1004.9 5.71583e-09 1.00084 0.248025
1004.93 5.73793e-09 1.00084 0.247613
1005.51 6.03414e-09 1.00085 0.248252
1004.95 5.83196e-09 1.00085 0.24871
1004.93 5.82726e-09 1.00085 0.24882
1004.92 5.73069e-09 1.00085 0.248625
1004.88 5.67195e-09 1.00084 0.247594
1004.9 5.70498e-09 1.00084 0.247735
1004.9 5.7172e-09 1.00084 0.247043
1004.92 5.7325e-09 1.00085 0.248353
1004.92 5.73497e-09 1.00084 0.247447
1004.93 5.74066e-09 1.00084 0.247577
1004.92 5.73903e-09 1.00084 0.247277
1005.55 6.04182e-09 1.00085 0.248244
1004.92 5.82522e-09 1.00085 0.248823
1004.92 5.73083e-09 1.00084 0.248571
1004.92 5.73129e-09 1.00085 0.248751
1004.94 5.75046e-09 1.00085 0.248233
1004.89 5.76229e-09 1.00084 0.247102
1004.91 5.72122e-09 1.00084 0.247101
1004.89 5.70382e-09 1.00084 0.246465
1004.94 5.74179e-09 1.00085 0.247773
1004.92 5.73299e-09 1.00084 0.246787
1004.93 5.76239e-09 1.00084 0.247044
1004.9 5.8207e-09 1.00085 0.248744
1004.93 5.72942e-09 1.00085 0.249061
1004.88 5.81456e-09 1.00084 0.248657
1004.89 5.81706e-09 1.00084 0.2487
1005.61 6.06678e-09 1.00081 0.248397
1005.58 6.0568e-09 1.00083 0.248341
1000 0 1.00075 0.248596
1000 0 1.00067 0.248972
1000 0 1.00067 0.248943
1005.54 6.06672e-09 1.00085 0.248247
1000 0 1.00067 0.248906
1005.49 6.05549e-09 1.00085 0.248312
1000 0 1.00067 0.248875
1005.46 6.04287e-09 1.00085 0.248348
1000 0 1.00067 0.248837
1004.94 5.76165e-09 1.00084 0.248179
1004.94 5.75918e-09 1.00084 0.248068
1004.87 5.6733e-09 1.00084 0.247581
1004.86 5.66497e-09 1.00084 0.247472
1004.94 5.75518e-09 1.00084 0.247887
1005.25 6.13634e-09 1.00084 0.248529
1004.95 5.75422e-09 1.00084 0.247872
1004.86 5.65727e-09 1.00084 0.247408
1004.87 5.67058e-09 1.00084 0.247543
1004.88 5.68573e-09 1.00084 0.247091
1004.87 5.67858e-09 1.00084 0.247598
1004.88 5.6871e-09 1.00084 0.247112
1004.86 5.64793e-09 1.00084 0.247403
1004.87 5.69475e-09 1.00084 0.247092
1004.88 5.67985e-09 1.00084 0.247105
1004.87 5.68015e-09 1.00084 0.246821
1004.88 5.68746e-09 1.00084 0.247123
1004.87 5.69528e-09 1.00084 0.246657
1004.94 5.75666e-09 1.00084 0.247917
1004.94 5.75975e-09 1.00085 0.248079
1004.86 5.6666e-09 1.00084 0.247517
1004.87 5.6712e-09 1.00084 0.247547
1005.4 6.04381e-09 1.00085 0.248214
1004.96 5.82786e-09 1.00085 0.248497
1004.91 5.72479e-09 1.00084 0.248095
1004.88 5.68514e-09 1.00084 0.247583
1004.88 5.69126e-09 1.00084 0.247006
1004.9 5.70954e-09 1.00084 0.247117
1004.92 5.7299e-09 1.00084 0.247256
1004.9 5.71246e-09 1.00084 0.246648
1004.94 5.82697e-09 1.00085 0.248713
1004.92 5.72809e-09 1.00084 0.248632
1004.92 5.82281e-09 1.00085 0.248801
1004.86 5.66159e-09 1.00084 0.247466
1004.86 5.66679e-09 1.00084 0.247552
1004.88 5.68085e-09 1.00084 0.2472
1004.88 5.68143e-09 1.00084 0.24709
1004.95 5.82631e-09 1.00085 0.248644
1004.92 5.72901e-09 1.00084 0.248385
1004.93 5.73786e-09 1.00084 0.247514
1004.89 5.69813e-09 1.00084 0.247039
1004.87 5.67901e-09 1.00084 0.246659
1004.91 5.72857e-09 1.00084 0.246655
1004.89 5.70219e-09 1.00084 0.246616
1004.9 5.70534e-09 1.00084 0.246106
1004.92 5.72781e-09 1.00084 0.248634
1004.94 5.75015e-09 1.00085 0.248298
1004.91 5.81724e-09 1.00085 0.24889
1004.92 5.72879e-09 1.00084 0.248716
1004.87 5.69287e-09 1.00084 0.247168
1004.88 5.69434e-09 1.00084 0.247168
1004.87 5.69935e-09 1.00084 0.246975
1004.87 5.68697e-09 1.00084 0.246768
1004.88 5.70116e-09 1.00084 0.246535
1004.87 5.6829e-09 1.00084 0.246321
1004.92 5.72868e-09 1.00084 0.248576
1004.89 5.70401e-09 1.00084 0.246012
1004.93 5.74079e-09 1.00084 0.247906
1004.92 5.75339e-09 1.00084 0.246882
1004.9 5.70883e-09 1.00084 0.246071
1004.9 5.7106e-09 1.00084 0.245614
1004.9 5.81528e-09 1.00085 0.248885
1004.92 5.72778e-09 1.00084 0.24888
1004.94 5.74802e-09 1.00085 0.248385
1004.94 5.75082e-09 1.00085 0.248265
1004.93 5.74833e-09 1.00085 0.248162
1005.51 6.03149e-09 1.00085 0.248231
1004.88 5.67157e-09 1.00084 0.247588
1004.93 5.82872e-09 1.00085 0.24886
1004.95 5.83363e-09 1.00085 0.248715
1004.92 5.73067e-09 1.00085 0.24862
1004.9 5.70442e-09 1.00084 0.247738
1004.9 5.71686e-09 1.00084 0.247038
1004.92 5.73229e-09 1.00085 0.248349
1004.93 5.74027e-09 1.00084 0.247562
1004.92 5.73492e-09 1.00084 0.247475
1004.92 5.73898e-09 1.00084 0.247319
1005.54 6.0444e-09 1.00085 0.248226
1004.92 5.82387e-09 1.00085 0.248843
1004.92 5.73102e-09 1.00084 0.248568
1004.92 5.7312e-09 1.00085 0.248756
1004.94 5.75017e-09 1.00085 0.248223
1004.89 5.76283e-09 1.00084 0.247099
1004.91 5.72123e-09 1.00084 0.247093
1004.89 5.70394e-09 1.00084 0.246433
1004.94 5.7419e-09 1.00085 0.247779
1004.92 5.73275e-09 1.00084 0.246854
1004.93 5.763e-09 1.00084 0.247055
1004.91 5.82333e-09 1.00085 0.248793
1004.92 5.73083e-09 1.00085 0.248898
1004.94 5.74573e-09 1.00085 0.248119
1004.94 5.74752e-09 1.00085 0.248314
1004.93 5.75512e-09 1.00085 0.24793
1004.87 5.45493e-09 1.00084 0.246693
1004.91 5.78897e-09 1.00084 0.246311
1004.89 5.60978e-09 1.00084 0.245548
1004.94 5.7779e-09 1.00085 0.247158
1004.91 5.73683e-09 1.00084 0.246428
1004.9 5.81962e-09 1.00085 0.248751
1004.92 5.7295e-09 1.00084 0.24902
1004.93 5.72946e-09 1.00085 0.249062
1004.94 5.75344e-09 1.00085 0.248802
1004.93 5.72925e-09 1.00085 0.249058
1004.87 5.80964e-09 1.00084 0.24864
1004.88 5.81359e-09 1.00084 0.248661
1005.63 6.08276e-09 1.00081 0.24838
1004.89 5.81816e-09 1.00084 0.248706
1005.6 6.06904e-09 1.00081 0.248435
1000 0 1.00075 0.248608
1005.58 6.05434e-09 1.00081 0.248426
1000 0 1.00071 0.248723
1000 0 1.00067 0.24897
1005.57 6.08142e-09 1.00085 0.24822
1005.53 6.06941e-09 1.00085 0.248269
1000 0 1.00067 0.248936
1000 0 1.00067 0.248909
1005.5 6.05271e-09 1.00085 0.248334
1000 0 1.00067 0.248877
1004.87 5.67825e-09 1.00084 0.247593
1004.87 5.67032e-09 1.00084 0.247542
1004.88 5.68725e-09 1.00084 0.247111
1004.88 5.68564e-09 1.00084 0.24707
1004.86 5.6569e-09 1.00084 0.247405
1004.94 5.75661e-09 1.00084 0.247868
1004.86 5.64848e-09 1.00084 0.247402
1004.87 5.69508e-09 1.00084 0.247094
1004.88 5.67991e-09 1.00084 0.247106
1004.87 5.68063e-09 1.00084 0.246789
1004.88 5.6877e-09 1.00084 0.247118
1004.87 5.69562e-09 1.00084 0.246634
1004.88 5.73714e-09 1.00084 0.24712
1004.87 5.6843e-09 1.00084 0.246904
1004.87 5.71864e-09 1.00084 0.246685
1004.87 5.60282e-09 1.00084 0.246614
1004.88 5.7383e-09 1.00084 0.246653
1004.87 5.59048e-09 1.00084 0.246303
1004.86 5.66122e-09 1.00084 0.24745
1004.86 5.66663e-09 1.00084 0.247541
1004.88 5.68081e-09 1.00084 0.247179
1004.88 5.68164e-09 1.00084 0.2471
1004.95 5.82806e-09 1.00085 0.248651
1004.92 5.72914e-09 1.00084 0.248385
1004.93 5.73774e-09 1.00084 0.247538
1004.89 5.69811e-09 1.00084 0.247073
1004.87 5.67925e-09 1.00084 0.24661
1004.89 5.7022e-09 1.00084 0.246631
1004.91 5.72813e-09 1.00084 0.24662
1004.9 5.70544e-09 1.00084 0.246068
1004.92 5.72764e-09 1.00084 0.248641
1004.94 5.75e-09 1.00085 0.248304
1004.91 5.81866e-09 1.00085 0.248862
1004.92 5.72888e-09 1.00084 0.248736
1004.87 5.69333e-09 1.00084 0.247172
1004.88 5.69479e-09 1.00084 0.24717
1004.87 5.70035e-09 1.00084 0.246975
1004.87 5.68797e-09 1.00084 0.24677
1004.92 5.72859e-09 1.00084 0.248584
1004.93 5.74065e-09 1.00084 0.247945
1004.92 5.75393e-09 1.00084 0.246859
1004.88 5.70193e-09 1.00084 0.246578
1004.87 5.68438e-09 1.00084 0.246323
1004.91 5.70955e-09 1.00084 0.246066
1004.89 5.70516e-09 1.00084 0.246016
1004.9 5.71116e-09 1.00084 0.245638
1004.93 5.74778e-09 1.00085 0.248391
1004.93 5.74822e-09 1.00085 0.248162
1004.94 5.75069e-09 1.00085 0.248256
1004.9 5.81401e-09 1.00085 0.248871
1004.92 5.72773e-09 1.00084 0.248895
1004.87 5.62388e-09 1.00083 0.246888
1004.86 5.63414e-09 1.00083 0.246811
1004.86 5.64187e-09 1.00083 0.246371
1004.87 5.63667e-09 1.00084 0.246033
1004.93 5.74407e-09 1.00085 0.248297
1004.88 5.61751e-09 1.00084 0.245043
1004.93 5.77245e-09 1.00084 0.247382
1004.92 5.71869e-09 1.00084 0.246176
1004.9 5.68184e-09 1.00084 0.245456
1004.89 5.81118e-09 1.00085 0.248827
1004.92 5.72468e-09 1.00084 0.248997
1004.94 5.75391e-09 1.00085 0.248417
1004.93 5.75272e-09 1.00084 0.248234
1004.93 5.75378e-09 1.00085 0.24795
1004.93 5.75231e-09 1.00084 0.248117
1005.55 6.04182e-09 1.00085 0.248208
1004.92 5.82522e-09 1.00085 0.24886
1004.89 5.76229e-09 1.00084 0.247097
1004.92 5.73129e-09 1.00085 0.248759
1004.92 5.73083e-09 1.00084 0.248569
1004.94 5.75046e-09 1.00085 0.248215
1004.91 5.72122e-09 1.00084 0.247085
1004.89 5.70382e-09 1.00084 0.246405
1004.94 5.74179e-09 1.00085 0.247789
1004.93 5.76239e-09 1.00084 0.247068
1004.92 5.73299e-09 1.00084 0.246918
1004.91 5.82209e-09 1.00085 0.248803
1004.92 5.73073e-09 1.00085 0.248915
1004.94 5.74559e-09 1.00085 0.248127
1004.94 5.74735e-09 1.00085 0.248316
1004.93 5.755e-09 1.00085 0.24791
1004.87 5.45478e-09 1.00084 0.246662
1004.91 5.79017e-09 1.00084 0.246329
1004.89 5.61124e-09 1.00084 0.2455
1004.94 5.77818e-09 1.00085 0.247135