# vtk DataFile Version 2.0
Wound Healing Simulation
ASCII
DATASET UNSTRUCTURED_GRID
POINTS 3012 float
69.9759 18.75 4
67.2507 60.3285 4
69.976 18.75 2
73.0099 25.446 4
71.1327 20.9142 4
68.6801 16.6661 4
67.8187 19.9237 3.96842
67.2507 60.3286 2
71.1327 54.0858 4
68.6801 58.3339 4
65.6939 62.2254 4
65.3047 58.9997 3.96735
74.6784 42.3946 4
73.7221 47.2057 4
69.9759 18.75 0
73.0099 25.446 2
68.6801 16.6661 2
71.1327 20.9142 2
67.8191 19.9283 2
74.6792 32.6053 4
73.7222 27.7943 4
72.1454 23.1494 4
70.6102 26.2217 3.97036
68.8798 21.9564 3.969
67.2507 14.6715 4
66.6292 17.9702 3.96732
65.6755 21.068 3.9605
67.2507 60.3285 0
71.1327 54.0858 2
68.6801 58.3339 2
65.694 62.2255 2
65.3063 58.9935 2
72.1454 51.8506 4
69.9759 56.25 4
68.8303 53.1151 3.96885
64.0165 64.0165 4
66.6031 57.1347 3.96816
63.8777 60.7609 3.96296
63.3967 57.7245 3.95661
60.3285 67.2507 4
74.6792 42.3947 2
73.7222 47.2057 2
74.9194 39.9526 4
74.2788 44.8158 4
72.1652 42.0857 3.97298
73.0099 49.554 4
71.2457 46.5981 3.97128
73.0099 25.446 0
71.1327 20.9142 0
68.6801 16.6661 0
67.8187 19.9237 0.0315764
74.6792 32.6053 2
73.7222 27.7943 2
67.2508 14.6715 2
72.1455 23.1494 2
70.6094 26.2231 2
66.6305 17.9756 2
68.8797 21.9597 2
65.6774 21.0693 2
74.9197 35.0474 4
74.2794 30.1841 4
72.1819 32.945 3.97311
71.2749 28.4329 3.97114
69.8107 24.0592 3.96959
68.261 26.977 3.9646
66.6553 22.9694 3.96265
65.694 12.7746 4
65.3152 16.1036 3.96627
64.5803 19.2442 3.95773
63.596 22.1514 3.9678
71.1327 54.0858 0
65.6939 62.2254 0
68.6801 58.3339 0
65.3047 58.9997 0.0326519
72.1455 51.8506 2
69.9759 56.25 2
68.8303 53.1114 2
64.0165 64.0165 2
66.6045 57.1289 2
63.879 60.7535 2
63.3913 57.7231 2
62.2254 65.694 4
58.887 65.4092 3.97266
69.7638 50.9902 3.96963
67.7767 55.1695 3.96856
66.5308 52.1718 3.96305
62.3283 62.4221 3.9663
64.5361 55.9851 3.95899
62.1459 59.3584 3.95223
61.5698 56.5542 3.96218
58.3339 68.6801 4
60.3285 67.2508 2
73.7221 47.2057 0
74.6784 42.3946 0
74.9197 39.9526 2
74.2794 44.8159 2
72.164 42.0847 2
73.0099 49.554 2
71.2447 46.5964 2
75 37.5 4
72.4024 39.8027 3.97386
71.7791 44.3529 3.97231
69.7657 41.7846 3.96858
70.5709 48.8141 3.97056
68.8381 45.9977 3.96757
74.6792 32.6053 0
73.7222 27.7943 0
67.2507 14.6715 0
72.1454 23.1494 0
70.6102 26.2217 0.0296355
68.8798 21.9564 0.0310021
66.6292 17.9702 0.0326787
65.6755 21.068 0.0394978
74.9197 35.0474 2
74.2794 30.1841 2
72.1805 32.9452 2
71.2738 28.4339 2
65.694 12.7745 2
65.3163 16.1103 2
69.8102 24.0614 2
68.2632 26.9779 2
64.5747 19.2467 2
66.6575 22.9707 2
63.5961 22.1524 2
72.4104 35.2255 3.97394
71.8008 30.6781 3.9725
69.8013 33.278 3.96804
68.8957 29.058 3.966
67.5135 24.9429 3.96359
65.8991 27.7167 3.97554
64.0165 10.9835 4
64.4623 23.9354 3.97142
63.8803 14.3312 3.96285
63.3898 17.4985 3.95428
62.626 20.446 3.96453
61.6338 23.1364 3.97391
60.6763 11.1058 3.96771
57.5998 11.5105 3.96234
72.1454 51.8506 0
69.9759 56.25 0
68.8303 53.1151 0.0311547
64.0165 64.0165 0
63.8777 60.7609 0.037043
66.6031 57.1347 0.0318421
63.3967 57.7245 0.0433934
62.2255 65.694 2
58.8907 65.4026 2
69.7635 50.9875 2
67.7774 55.1645 2
66.5319 52.1704 2
62.3311 62.4128 2
64.5301 55.9829 2
62.1432 59.3578 2
61.5764 56.556 2
60.6611 63.9703 3.96612
57.0186 66.7278 3.97215
57.5418 63.6318 3.9672
67.3953 50.1447 3.96435
65.581 54.1317 3.9614
64.2195 51.2756 3.97244
60.7504 60.8892 3.95223
62.5365 54.945 3.96652
60.4033 58.0178 3.95759
59.9404 55.5918 3.96864
56.25 69.9759 4
58.3339 68.6801 2
60.3285 67.2507 0
58.9155 9.66471 3.96901
62.2254 9.30607 4
73.0099 49.554 0
74.2788 44.8158 0
71.2457 46.5981 0.028717
72.1652 42.0857 0.0270247
74.9194 39.9526 0
75 37.5 2
72.4017 39.8019 2
71.7785 44.3514 2
69.7668 41.784 2
70.5704 48.812 2
68.8405 45.9969 2
72.486 37.5129 3.97376
70.012 39.6563 3.96855
69.3792 43.8973 3.96844
67.3179 41.4685 3.97657
68.169 48.0821 3.96593
66.3984 45.3743 3.97619
74.9197 35.0474 0
74.2794 30.1841 0
72.1819 32.945 0.0268919
71.2749 28.4329 0.0288582
65.694 12.7746 0
65.3152 16.1036 0.0337324
69.8107 24.0592 0.0304089
68.261 26.977 0.0354049
66.6553 22.9694 0.0373499
64.5803 19.2442 0.0422712
63.596 22.1514 0.0321985
72.4096 35.2252 2
71.8 30.6789 2
69.8031 33.2785 2
68.8987 29.0586 2
64.0165 10.9835 2
63.8825 14.3385 2
63.4049 17.4951 2
67.5159 24.944 2
65.8959 27.7183 2
62.633 20.4453 2
64.4612 23.9367 2
61.6343 23.1385 2
60.6792 11.112 2
57.5954 11.4993 2
70.0252 35.3978 3.9682
69.4157 31.1635 3.96715
67.3836 33.625 3.97639
66.4793 29.6911 3.97634
65.2321 25.7931 3.97393
63.6445 28.3864 3.97536
62.3323 12.6606 3.9657
62.379 24.8171 3.97408
62.1437 15.8282 3.95242
61.5353 18.823 3.96062
60.7768 21.5465 3.971
59.82 23.9936 3.97387
59.228 12.8349 3.95742
55.8654 10.2937 3.9701
56.3642 13.2192 3.95994
69.7638 50.9902 0.0303748
62.2254 65.694 0
58.887 65.4092 0.0273351
67.7767 55.1695 0.031442
66.5308 52.1718 0.0369532
62.3283 62.4221 0.0337006
62.1459 59.3584 0.0477665
64.5361 55.9851 0.0410053
61.5698 56.5542 0.0378232
60.6653 63.9625 2
57.0226 66.7216 2
57.546 63.6443 2
67.3961 50.1433 2
65.58 54.13 2
64.2181 51.2749 2
60.7395 60.8941 2
62.5411 54.9464 2
60.4029 58.0177 2
59.9376 55.5902 2
55.0646 67.9297 3.98025
59.2072 62.3001 3.97051
55.7822 64.8405 3.96635
56.2968 61.9947 3.97915
65.0044 49.3097 3.97429
63.3942 53.1733 3.96925
61.9112 50.4645 3.97342
59.1797 59.4321 3.95451
60.6367 54.113 3.97247
58.8502 56.7883 3.95978
58.737 54.9387 3.97088
48.0956 68.5657 3.97737
50.9431 69.9293 3.98398
54.0858 71.1327 4
56.25 69.976 2
58.3339 68.6801 0
57.0544 8.33982 3.9764
60.3285 7.74928 4
58.9181 9.6709 2
62.2255 9.30602 2
70.5709 48.8141 0.0294445
71.7791 44.3529 0.027685
68.8381 45.9977 0.0324256
69.7657 41.7846 0.031424
72.4024 39.8027 0.0261449
75 37.5 0
72.4847 37.5124 2
70.0135 39.656 2
69.3795 43.8966 2
67.3145 41.4681 2
68.1686 48.0808 2
66.3945 45.3734 2
70.1001 37.5239 3.96843
67.5651 39.5004 3.97652
66.9288 43.4235 3.97642
65.0916 41.1684 3.97612
65.7414 47.334 3.97583
64.1456 44.7553 3.97556
72.4104 35.2255 0.0260646
71.8008 30.6781 0.0275032
69.8013 33.278 0.031964
68.8957 29.058 0.0340027
64.0165 10.9835 0
63.8803 14.3312 0.037153
63.3898 17.4985 0.0457164
67.5135 24.9429 0.0364086
65.8991 27.7167 0.0244623
64.4623 23.9354 0.0285781
62.626 20.446 0.0354662
61.6338 23.1364 0.0260874
60.6763 11.1058 0.0322933
57.5998 11.5105 0.0376639
70.027 35.398 2
69.4179 31.164 2
67.3806 33.6256 2
66.4758 29.6925 2
62.3355 12.6677 2
62.1521 15.8289 2
61.5419 18.8227 2
65.2298 25.7947 2
63.6435 28.3869 2
60.7773 21.5489 2
62.378 24.8185 2
59.8178 23.9957 2
59.225 12.8287 2
56.3589 13.2131 2
55.8658 10.2962 2
67.6066 35.5666 3.97657
66.9826 31.6746 3.97639
65.2494 33.976 3.97623
64.1681 30.2969 3.97543
63.0453 26.5741 3.97458
61.5827 28.9578 3.97494
60.7454 14.2708 3.95239
60.4024 25.581 3.97418
60.3676 17.2713 3.95853
59.7743 20.0411 3.96624
59.07 22.5391 3.97226
58.2397 24.6477 3.97383
54.0382 9.16308 3.98232
57.8201 14.4545 3.95226
54.7651 12.1284 3.97075
55.2091 14.8165 3.95352
67.3953 50.1447 0.0356526
57.0186 66.7278 0.0278542
60.6611 63.9703 0.0338755
57.5418 63.6318 0.0328003
65.581 54.1317 0.038599
64.2195 51.2756 0.027561
60.7504 60.8892 0.0477748
60.4033 58.0178 0.042413
62.5365 54.945 0.0334808
59.9404 55.5918 0.0313633
55.0697 67.9236 2
59.2025 62.3081 2
55.7862 64.8347 2
56.2938 61.9998 2
65.0022 49.3085 2
63.3944 53.1733 2
61.9105 50.4639 2
59.2037 59.4397 2
60.6357 54.112 2
58.8593 56.7899 2
58.7455 54.9395 2
53.0365 68.9953 3.98062
53.9499 65.9723 3.96877
57.8064 60.7779 3.94918
54.6464 63.0836 3.96616
55.1429 60.4979 3.97456
62.6525 48.4969 3.97414
61.2505 52.3774 3.97298
59.544 49.7527 3.97275
57.7122 58.0701 3.95638
58.7644 53.6882 3.97259
57.5244 55.5247 3.96274
50.0999 67.8423 3.97289
47.4485 66.55 3.97359
46.0511 69.1462 3.98013
48.1002 68.5659 2
48.7974 70.7207 3.98672
50.9487 69.9259 2
51.8506 72.1454 4
54.0858 71.1327 2
56.25 69.9759 0
55.1008 7.14254 3.98952
58.3339 6.31992 4
57.0583 8.34469 2
60.3286 7.74926 2
58.9155 9.66471 0.0309883
62.2254 9.30607 0
68.169 48.0821 0.0340696
69.3792 43.8973 0.0315645
66.3984 45.3743 0.0238073
67.3179 41.4685 0.0234276
70.012 39.6563 0.0314502
72.486 37.5129 0.0262438
70.1028 37.5238 2
67.5616 39.5002 2
66.9263 43.4223 2
65.0914 41.1682 2
65.7386 47.3326 2
64.1453 44.7552 2
67.668 37.5261 3.97646
65.3337 39.3517 3.97631
64.6963 42.9558 3.976
63.1261 40.8722 3.97631
63.4307 46.5893 3.97461
62.1206 44.0939 3.9757
70.0252 35.3978 0.0318038
69.4157 31.1635 0.0328539
67.3836 33.625 0.0236106
66.4793 29.6911 0.0236611
62.3323 12.6606 0.0343023
62.1437 15.8282 0.0475845
61.5353 18.823 0.039378
65.2321 25.7931 0.0260741
63.6445 28.3864 0.0246409
62.379 24.8171 0.0259167
60.7768 21.5465 0.0289963
59.82 23.9936 0.0261295
59.228 12.8349 0.0425835
56.3642 13.2192 0.0400562
55.8654 10.2937 0.0298977
67.6036 35.5669 2
66.9798 31.6757 2
65.2484 33.9762 2
64.168 30.2971 2
60.7406 14.2707 2
60.3611 17.274 2
59.7724 20.0442 2
63.0442 26.5749 2
61.5827 28.9579 2
59.0697 22.5419 2
60.4016 25.5816 2
58.235 24.6504 2
57.8171 14.4439 2
55.1947 14.7987 2
54.0413 9.15608 2
54.7558 12.1217 2
65.4326 35.6941 3.97625
64.7069 32.2275 3.97562
63.7115 34.3069 3.97608
61.9082 30.7768 3.9753
60.9829 27.2805 3.97453
60.0392 29.3563 3.97537
59.1356 15.8075 3.95511
58.5331 26.0977 3.97469
58.6996 18.5899 3.96066
58.1498 21.153 3.96763
57.5762 23.4359 3.97253
57.1502 25.0275 3.97473
52.1046 8.18894 3.96591
53.0501 11.0793 3.96389
56.4896 15.9322 3.95587
53.7478 13.8222 3.95522
54.1826 16.2087 3.95637
55.0646 67.9297 0.0197549
65.0044 49.3097 0.0257095
55.7822 64.8405 0.0336549
59.2072 62.3001 0.029492
56.2968 61.9947 0.0208496
63.3942 53.1733 0.0307461
61.9112 50.4645 0.0265807
59.1797 59.4321 0.0454942
58.8502 56.7883 0.0402165
60.6367 54.113 0.0275285
58.737 54.9387 0.0291191
53.0423 68.9914 2
53.9541 65.9674 2
57.8085 60.791 2
54.6417 63.0805 2
55.1399 60.5006 2
62.652 48.4963 2
61.2502 52.3766 2
59.544 49.7522 2
57.7142 58.071 2
58.7686 53.6874 2
57.521 55.5215 2
52.0574 66.9728 3.97239
52.924 64.1267 3.96771
56.4673 59.3281 3.95319
53.6042 61.448 3.96522
[...]
POINT_DATA 3012
SCALARS Jp_lamdaP float 4
LOOKUP_TABLE default
0.999271 1 1 0.999271
1 1 1 1
0.999294 1 1 0.999294
0.999222 1 1 0.999222
0.999275 1 1 0.999275
0.999235 1 1 0.999235
1.02238 1.02443 1 0.997991
1 1 1 1
1 1 1 1
1 1 1 1
0.999287 1 1 0.999287
1.01881 1.02097 1 0.997883
0.99931 1 1 0.99931
0.999275 1 1 0.999275
0.999306 1 1 0.999306
0.999267 1 1 0.999267
0.999251 1 1 0.999251
0.999309 1 1 0.999309
1.02221 1.02428 1 0.997983
1 1 1 1
0.99922 1 1 0.99922
0.999251 1 1 0.999251
1.01434 1.01643 1 0.997941
1.01923 1.02127 1 0.998002
0.999216 1 1 0.999216
1.02423 1.02634 1 0.997949
1.0596 1.0637 1 0.996139
0.999997 1 1 0.999997
0.999645 1 1 0.999645
0.999654 1 1 0.999654
0.999998 1 1 0.999998
1.01663 1.01876 1.00002 0.99789
0.999283 1 1 0.999283
0.999308 1 1 0.999308
1.02067 1.02247 1 0.998245
1 1 1 1
1.02267 1.02443 1 0.998282
1.01109 1.01251 1.00071 0.997898
1.04634 1.05049 1.00013 0.99592
1 1 1 1
1 1 1 1
0.999642 1 1 0.999642
1 1 1 1
0.999306 1 1 0.999306
1.00359 1.00575 1 0.997852
1 1 1 1
1.01036 1.01219 1 0.998189
0.999306 1 1 0.999306
0.999336 1 1 0.999336
0.999258 1 1 0.999258
1.02214 1.0242 1 0.997982
0.999625 1 1 0.999625
0.99926 1 1 0.99926
0.99923 1 1 0.99923
0.999293 1 1 0.999293
1.0141 1.01621 1 0.997926
1.024 1.02611 1 0.997944
1.01905 1.0211 1 0.997993
1.06051 1.06462 1 0.996138
1 1 1 1
0.999251 1 1 0.999251
1.00474 1.00644 1 0.998311
1.01111 1.01319 1 0.997942
1.0169 1.01897 1 0.997974
1.05967 1.06383 1 0.996091
1.05984 1.06396 1 0.996132
0.999216 1 1 0.999216
1.01454 1.01652 1.0001 0.997955
1.05871 1.06284 1 0.996118
1.07949 1.08446 1 0.995422
1 1 1 1
1 1 1 1
1 1 1 1
1.01464 1.01678 1 0.997895
1 1 1 1
1 1 1 1
1.02073 1.02291 1 0.997868
0.999698 1 1 0.999698
1.02182 1.02394 1 0.997922
1.00913 1.01011 1.00087 0.99816
1.05043 1.05474 1 0.995913
1 1 1 1
1.00527 1 1.00621 0.999065
1.01814 1.0204 1 0.997787
1.02168 1.02385 1 0.997878
1.06541 1.06994 1 0.995767
1.00538 1.00476 1.00201 0.9986
1.0586 1.06294 1 0.995919
1.04011 1.04221 1.00195 0.99604
1.07749 1.08263 1 0.995254
1 1 1 1
1 1 1 1
1 1 1 1
1 1 1 1
1 1 1 1
0.999655 1 1 0.999655
1.0045 1.00645 1 0.998069
0.999635 1 1 0.999635
1.01168 1.0137 1 0.998004
1 1 1 1
1.00239 1.00449 1 0.997914
1.00656 1.00835 1 0.99822
1.05719 1.06157 1 0.995873
1.01508 1.0169 1 0.99821
1.06474 1.0692 1 0.995825
0.999334 1 1 0.999334
0.999297 1 1 0.999297
0.999238 1 1 0.999238
0.99933 1 1 0.99933
1.01385 1.01597 1 0.997915
1.01888 1.02093 1 0.997988
1.02337 1.02548 1 0.997944
1.06184 1.06595 1 0.996137
1 1 1 1
0.999288 1 1 0.999288
1.00425 1.00629 1 0.997973
1.01083 1.01293 1 0.997924
0.999616 1 1 0.999616
1.01606 1.0177 1.00031 0.998078
1.01667 1.01874 1 0.997964
1.06009 1.06425 1 0.996099
1.0588 1.06293 1 0.996116
1.06069 1.06481 1 0.996133
1.07882 1.08377 1 0.995432
1.00338 1.00545 1 0.997936
1.00734 1.00938 1 0.997982
1.05409 1.05846 0.99963 0.996234
1.05755 1.0618 0.999854 0.99614
1.05938 1.06351 1 0.996125
1.09091 1.09726 0.998467 0.995736
1 1 1 1
1.08472 1.08963 0.999947 0.995542
1.00518 1.00558 1.00165 0.997959
1.0511 1.05543 1 0.995896
1.07494 1.08002 1 0.995296
1.08026 1.08663 0.998469 0.995664
1.00322 1.00049 1.00418 0.998551
1.01232 1.00292 1.01233 0.997069
1 1 1 1
1 1 1 1
1.02109 1.02327 1 0.99787
1 1 1 1
1.00647 1.00715 1.00132 0.998004
1.02156 1.02368 1 0.997927
1.05404 1.05837 1 0.995907
1 1 1 1
1.00592 1 1.00683 0.999088
1.0191 1.02113 1 0.998005
1.0223 1.02426 1 0.998081
1.06455 1.06908 1 0.995762
1.00432 1.00312 1.00285 0.998351
1.05828 1.06262 1 0.995918
1.04041 1.04278 1.0017 0.996035
1.0766 1.08171 1 0.995279
1.00436 1.00088 1.00477 0.998713
1.00745 1 1.0081 0.999347
1.01665 1.00624 1.01283 0.997541
1.06638 1.07093 1 0.995743
1.06499 1.06943 1 0.995843
1.08885 1.09419 0.999632 0.995483
1.02942 1.02947 1.00349 0.996464
1.07503 1.07991 1 0.995481
1.06722 1.07128 1.00102 0.995196
1.08709 1.09219 1 0.995337
1 1 1 1
1 1 1 1
1 1 1 1
1.00454 1.00004 1.00567 0.998835
1 1 1 1
1 1 1 1
1 1 1 1
1.0128 1.01501 1 0.997827
1.00499 1.0071 1 0.997898
1 1 1 1
1 1 1 1
1.00264 1.00473 1 0.997915
1.00743 1.0094 1 0.99804
1.05655 1.06092 1 0.995875
1.01575 1.01798 1 0.997807
1.06268 1.06714 1 0.995823
1.00241 1.0045 1 0.997923
1.05454 1.05892 1 0.99586
1.06064 1.06504 1 0.995869
1.09052 1.09893 0.996374 0.995958
1.06656 1.07109 1 0.99577
1.09008 1.09787 0.997028 0.995871
1 1 1 1
0.999326 1 1 0.999326
1.00371 1.00613 1 0.997591
1.01056 1.01268 1 0.997909
1 1 1 1
1.01755 1.01937 1 0.998206
1.01644 1.01852 1 0.997956
1.06048 1.06462 1 0.996106
1.06161 1.06573 1 0.996134
1.05798 1.0621 1 0.996116
1.07736 1.0823 1 0.995442
1.00304 1.00512 1 0.997934
1.00715 1.00921 1 0.997965
1.05451 1.05916 0.999531 0.996079
1.05855 1.06276 0.999921 0.996119
1 1 1 1
1.00821 1.00918 1.0009 0.998135
1.04802 1.05174 1.00043 0.99603
1.05992 1.06405 1 0.996114
1.089 1.09613 0.997704 0.99578
1.07447 1.07954 1 0.995301
1.08491 1.08986 0.999896 0.995559
1.07979 1.08615 0.998463 0.995672
1.0032 1.0009 1.00377 0.998536
1.01299 1.00505 1.01087 0.997062
1.05327 1.05764 1 0.995872
1.05601 1.06055 0.99952 0.9962
1.09036 1.09779 0.997313 0.995903
1.08981 1.09768 0.99695 0.995868
1.0866 1.09365 0.997839 0.995703
1.08026 1.09316 0.99208 0.996089
1.00333 1.00226 1.00283 0.99824
1.08016 1.08992 0.995126 0.995898
1.0422 1.0446 1.00163 0.996072
1.07451 1.07971 1 0.995181
1.08169 1.08677 0.999955 0.995377
1.07412 1.08665 0.992396 0.996044
1.01526 1.01112 1.00749 0.99663
1.01322 1.00078 1.01485 0.997619
1.01917 1.01297 1.00996 0.996192
1.01963 1.02184 1 0.997829
1 1 1 1
1.00596 1 1.00686 0.999112
1.02241 1.02455 1 0.997916
1.06387 1.0684 1 0.995758
1.00372 1.00195 1.00342 0.99835
1.04224 1.0453 1.00105 0.99603
1.05744 1.06178 1 0.995915
1.0771 1.08218 1 0.995305
1.00447 1.0006 1.00513 0.998741
1.0068 1 1.00744 0.999365
1.01405 1.00379 1.01272 0.997543
1.06496 1.06952 1 0.995737
1.06342 1.06786 1 0.995842
1.08893 1.09423 0.999676 0.995478
1.02616 1.02653 1.00319 0.996464
1.07636 1.08126 1 0.99547
1.07104 1.07547 1.00071 0.99518
1.08722 1.09228 1 0.995371
1.00652 1 1.00697 0.999554
1.01937 1.01472 1.0076 0.996996
1.01711 1.0015 1.01761 0.998012
1.01575 1.01319 1.00562 0.996925
1.08908 1.09542 0.998611 0.995592
1.08341 1.08835 1 0.995456
1.08391 1.09437 0.994729 0.995694
1.04755 1.0463 1.00575 0.995476
1.07842 1.08355 0.999552 0.995709
1.07505 1.07866 1.00158 0.995086
1.09985 1.10487 1 0.995463
1.00261 1 1.00352 0.999093
1.00057 1 1.00079 0.999786
1 1 1 1
1 1 1 1
1 1 1 1
1.00482 1 1.00564 0.999186
1 1 1 1
1.00463 1.00009 1.00573 0.998812
1 1 1 1
1.01701 1.01924 1 0.997808
1.00842 1.01057 1 0.997866
1.06105 1.0655 1 0.995822
1.05596 1.06034 1 0.995876
1.00294 1.00503 1 0.997917
1 1 1 1
1.00236 1.00444 1 0.997923
1.05445 1.05883 1 0.995862
1.05961 1.06401 1 0.995869
1.09055 1.09892 0.996414 0.995957
1.06491 1.06944 1 0.995764
1.09132 1.09905 0.997089 0.995868
1.05313 1.05751 1 0.99586
1.09049 1.09885 0.996438 0.99594
1.09078 1.09874 0.996801 0.995941
1.07619 1.09032 0.990684 0.99633
1.08955 1.09685 0.997598 0.995742
1.0799 1.0939 0.990979 0.996192
1.00278 1.00485 1 0.997933
1.00696 1.00903 1 0.997948
1.05493 1.05988 0.999404 0.995925
1.05959 1.06374 1 0.996097
0.999999 1 1 0.999999
1.01121 1.01208 1.00082 0.998318
1.04573 1.04915 1.00058 0.996162
1.06044 1.06459 1 0.996104
1.08717 1.0951 0.996922 0.995824
1.08509 1.09008 0.999848 0.995577
1.07567 1.08074 1 0.995307
1.07981 1.08619 0.998438 0.995679
1.00323 1.00135 1.00336 0.99852
1.01494 1.0073 1.01056 0.997055
1.05351 1.05807 0.999799 0.995896
1.05667 1.06109 0.999646 0.996194
1.08966 1.0975 0.996913 0.995932
1.08957 1.09683 0.997556 0.995822
1.00367 1.00308 1.00236 0.998226
1.04003 1.04228 1.00178 0.996074
1.0773 1.08251 1 0.995182
1.08733 1.09368 0.99851 0.995675
1.08009 1.09382 0.991273 0.996142
1.0813 1.08635 0.999958 0.995395
1.07983 1.0897 0.995023 0.995899
1.07391 1.08679 0.992084 0.996026
1.01869 1.01465 1.00738 0.996628
1.0193 1.01112 1.01194 0.99619
1.01487 1.00104 1.01623 0.997625
1.09053 1.0979 0.997382 0.995894
1.09009 1.09827 0.996621 0.995912
1.0757 1.08825 0.992177 0.99626
1.07832 1.09264 0.990682 0.996183
1.0796 1.09319 0.991466 0.996065
1.07363 1.09418 0.984729 0.996436
1.02647 1.02639 1.00376 0.996334
1.0696 1.08949 0.985453 0.996238
1.06992 1.075 1 0.995269
1.07933 1.08474 1 0.995017
1.07496 1.08181 0.998106 0.995553
1.06535 1.08517 0.985367 0.996315
1.01796 1.00316 1.01677 0.99801
1.03226 1.02573 1.01059 0.995821
1.016 1.00147 1.01789 0.996678
1.02593 1.0204 1.00974 0.995725
1.06361 1.06817 1 0.99573
1.00665 1 1.00727 0.999383
1.00457 1.00013 1.00567 0.998769
1.01392 1.00202 1.01436 0.997543
1.06221 1.06665 1 0.995841
1.08892 1.09418 0.99972 0.995472
1.02084 1.02121 1.00318 0.996465
1.07117 1.07587 1.00047 0.995164
1.07775 1.08267 1 0.99546
1.08512 1.09013 1 0.995404
1.00542 1 1.00585 0.999568
1.01576 1.01053 1.00818 0.997013
1.01772 1.00154 1.01819 0.998007
1.01405 1.01031 1.0068 0.996928
1.09021 1.0964 0.998759 0.995586
1.08393 1.08888 1 0.995453
1.08356 1.09404 0.994703 0.995694
1.04721 1.04549 1.0062 0.995468
1.07724 1.08241 0.999549 0.995672
1.07049 1.07394 1.00173 0.995071
1.09965 1.10453 1 0.99558
1.00253 1 1.00285 0.999687
1.01514 1 1.01679 0.998372
1.02583 1.02343 1.00618 0.996187
1.01996 1.00696 1.01567 0.997283
1.01467 1.01312 1.00482 0.99673
1.08223 1.09666 0.990967 0.995842
1.08127 1.08832 0.997852 0.995661
1.07451 1.09089 0.989056 0.995883
1.03714 1.03835 1.00371 0.995144
1.08212 1.08966 0.997262 0.995806
1.05743 1.06177 1.00086 0.995055
1.00474 1 1.00584 0.998902
1.00816 1 1.00983 0.998342
1.00002 1 1.00076 0.999256
1.00163 1 1.00253 0.999095
0.999875 1 1 0.999875
1.00025 1 1.00045 0.999802
0.999985 1 1 0.999985
1 1 1 1
1 1 1 1
1.00248 1 1.00297 0.999506
1 1 1 1
1.00524 1 1.00608 0.999158
1 1 1 1
1.00406 1.00011 1.00516 0.998788
1 1 1 1
1.06295 1.06748 1 0.995758
1.0583 1.06269 1 0.995869
1.09221 1.09984 0.99718 0.995866
1.0905 1.09882 0.996459 0.995956
1.05428 1.05866 1 0.995863
1.00219 1.00428 1 0.997922
1.05335 1.05772 1 0.99586
1.09032 1.09869 0.996428 0.99594
1.09085 1.09888 0.996742 0.995939
1.07562 1.09045 0.990019 0.996345
1.09077 1.09799 0.997678 0.995738
1.07968 1.09351 0.991119 0.996192
1.09019 1.09831 0.996661 0.995928
1.07523 1.09 0.990059 0.996355
1.07807 1.09151 0.991366 0.996288
1.07869 1.09749 0.986282 0.99654
1.0794 1.0954 0.989318 0.996034
1.07833 1.10032 0.983456 0.996504
1.0536 1.05836 0.999579 0.99592
1.05737 1.06164 0.999789 0.996188
1.08903 1.09723 0.996556 0.995961
1.08924 1.09589 0.998144 0.995777
1.00456 1.0044 1.00195 0.998213
1.03913 1.04107 1.00206 0.996077
1.08026 1.08549 1 0.995184
1.08802 1.09367 0.999186 0.995646
1.07984 1.09439 0.990465 0.996196
1.07932 1.08931 0.994918 0.995899
1.08055 1.08556 0.999975 0.995414
1.07349 1.08677 0.99174 0.996008
1.02256 1.01869 1.0072 0.996625
1.01761 1.00957 1.01182 0.996188
1.01504 1.00147 1.01596 0.99763
1.08995 1.09753 0.997168 0.995915
1.0894 1.09777 0.996454 0.99591
1.07536 1.08873 0.991386 0.996304
1.07909 1.09287 0.991195 0.996158
1.03114 1.03081 1.004 0.996338
1.07029 1.07536 1.00002 0.995275
1.07944 1.08481 1.00003 0.995018
1.08004 1.09289 0.992207 0.996011
1.07332 1.0945 0.98411 0.99648
1.07586 1.08244 0.998402 0.995514
1.06986 1.08975 0.985455 0.996238
1.06511 1.08563 0.984683 0.996354
1.03016 1.02603 1.00824 0.995826
1.0228 1.01784 1.00924 0.995666
1.015 1.00272 1.01426 0.998014
1.01376 1.00179 1.01525 0.996747
1.07556 1.08866 0.991628 0.99631
1.07819 1.09178 0.991304 0.99622
1.07417 1.09236 0.98685 0.996458
1.07122 1.09586 0.98093 0.996517
1.07147 1.09228 0.9845 0.996394
1.07546 1.10066 0.980401 0.996638
1.05047 1.05335 1.00178 0.995498
1.06237 1.08975 0.978204 0.996592
1.06394 1.06928 1 0.995004
1.07239 1.07772 1.00011 0.994941
1.07182 1.08229 0.994704 0.995602
1.06665 1.08885 0.983167 0.996382
1.01396 1.00432 1.01143 0.998193
1.02407 1.00926 1.01771 0.997017
1.02837 1.02981 1.00319 0.995428
1.01478 1.00546 1.01301 0.996308
1.02305 1.0161 1.01139 0.995494
1.00429 1 1.00471 0.999583
1.09137 1.09742 0.998906 0.99558
1.01647 1.0016 1.01688 0.998002
1.01246 1.00661 1.0088 0.99703
1.01109 1.00692 1.00723 0.996931
1.08438 1.08934 1 0.99545
1.08315 1.09365 0.994676 0.995694
1.05034 1.04998 1.00489 0.995462
1.06975 1.07299 1.00193 0.995057
1.07646 1.08167 0.999546 0.995636
1.10043 1.10519 1 0.995697
1.00182 1 1.00213 0.999698
1.01594 1 1.01759 0.998382
1.02503 1.02259 1.00621 0.996201
1.01942 1.00583 1.01629 0.99727
1.01593 1.01357 1.00574 0.9966
1.08167 1.09613 0.990927 0.995839
1.08096 1.08806 0.99781 0.995662
1.07356 1.09011 0.988898 0.995872
1.03816 1.03985 1.00325 0.99514
1.08715 1.0946 0.997401 0.995775
1.05822 1.0624 1.00096 0.995116
1.00846 1 1.0098 0.998675
1.01942 1.00248 1.01937 0.997576
1.01372 1.01482 1.00312 0.9958
1.02619 1.01497 1.01423 0.996874
1.02537 1.02415 1.00485 0.996351
1.07653 1.0987 0.983685 0.996071
1.07479 1.08506 0.994701 0.995817
1.06296 1.08493 0.983585 0.996097
1.00985 1.01093 1.00379 0.995154
1.05279 1.05819 0.999703 0.995189
1.00477 1 1.00587 0.998905
1.00825 1 1.01009 0.998172
1.00867 1 1.01036 0.998325
1.00712 1 1.00897 0.998162
1.00403 1 1.00555 0.998489
0.999531 1 1.00018 0.999355
1.0002 1 1.00094 0.99926
0.999927 1 1 0.999927
1.00141 1 1.00232 0.999098
0.99989 1 1 0.99989
1 1 1 1
0.999998 1 1.00018 0.999818
0.999992 1 1 0.999992
1 1 1 1
1.00255 1 1.00286 0.999695
1.00414 1 1.00465 0.999492
1 1 1 1
1 1 1 1
1.00626 1 1.00714 0.999129
1 1 1 1
1.09214 1.09929 0.997752 0.995734
1.09121 1.09934 0.996653 0.995938
1.07957 1.09327 0.991251 0.996191
1.07513 1.09066 0.989359 0.996361
1.09015 1.09853 0.996417 0.99594
1.05378 1.05816 1 0.99586
1.09002 1.09814 0.99666 0.995928
1.07538 1.0899 0.990297 0.99635
1.07826 1.0917 0.991364 0.996289
1.07764 1.09725 0.985519 0.996567
1.07905 1.09518 0.989199 0.99603
1.07829 1.10051 0.98323 0.996527
1.07531 1.08942 0.990689 0.996327
1.07735 1.09738 0.985171 0.996526
1.0787 1.09818 0.985616 0.996593
1.07986 1.10519 0.980333 0.996684
1.07777 1.10072 0.982759 0.996324
1.0826 1.10856 0.979797 0.996719
1.08945 1.09722 0.996973 0.995936
1.08868 1.09724 0.996274 0.995909
1.07494 1.08916 0.990554 0.996348
1.07989 1.09313 0.991722 0.996133
1.03342 1.0327 1.00438 0.996343
1.0676 1.07259 1.00007 0.995279
1.0789 1.0841 1.00018 0.995019
1.08053 1.09261 0.992959 0.995958
1.07309 1.09483 0.98357 0.996525
1.07028 1.09017 0.985466 0.996238
1.07674 1.08306 0.998687 0.995476
1.0649 1.0861 0.984027 0.996394
1.02937 1.02493 1.00854 0.995831
1.02222 1.01468 1.01187 0.995606
1.01371 1.00244 1.01326 0.998018
1.012 1.00222 1.01299 0.996816
1.07575 1.08883 0.991648 0.996309
1.07805 1.09161 0.991341 0.996205
1.07358 1.0921 0.986504 0.996486
1.07247 1.09609 0.981891 0.9965
1.04961 1.05004 1.00411 0.995498
1.06333 1.06862 1.00003 0.995024
1.07173 1.07683 1.00034 0.994928
1.07237 1.09254 0.985137 0.996346
1.07296 1.09914 0.979416 0.996693
1.06994 1.08027 0.994823 0.995589
1.06346 1.09085 0.97822 0.996592
1.0651 1.08779 0.982622 0.996458
1.02856 1.02828 1.00485 0.995437
1.02078 1.01352 1.01174 0.995479
1.01779 1.00545 1.01602 0.996309
1.01406 1.00293 1.01294 0.998179
1.02127 1.00456 1.01964 0.997046
1.07606 1.09588 0.985351 0.996503
1.07631 1.09877 0.982995 0.996506
1.07171 1.10522 0.972909 0.996679
1.06817 1.09607 0.97778 0.996686
1.04189 1.04686 1.00002 0.995226
1.06354 1.09337 0.975885 0.996755
1.04391 1.04906 1.00029 0.994803
1.05947 1.06595 0.999081 0.99483
1.06491 1.08181 0.988713 0.995615
1.00871 1 1.01015 0.998566
1.01986 1.0007 1.02182 0.997376
1.02225 1.01301 1.01244 0.996724
1.02045 1.01892 1.00618 0.995345
1.02234 1.00771 1.01879 0.9958
1.02112 1.01095 1.01476 0.995371
1.00104 1 1.00133 0.999709
1.01693 1 1.01857 0.998391
1.08102 1.09552 0.990888 0.995836
1.02143 1.00416 1.02 0.997256
1.02385 1.01962 1.00796 0.996215
1.0179 1.01466 1.00675 0.996471
1.08036 1.08749 0.997772 0.995663
1.0728 1.08953 0.98874 0.995861
1.0369 1.03884 1.00301 0.995138
1.05754 1.06184 1.00077 0.995177
1.09248 1.09986 0.997534 0.995744
1.00893 1 1.01026 0.998681
1.02083 1.00124 1.02204 0.99758
1.01976 1.01965 1.00443 0.9957
1.02727 1.01347 1.01679 0.996883
1.02598 1.02504 1.00461 0.996324
1.07522 1.09722 0.983817 0.996066
1.07828 1.08852 0.994764 0.995802
1.0659 1.08862 0.982944 0.996117
1.01227 1.01392 1.00324 0.995143
1.05004 1.05543 0.999745 0.995146
1.0135 1.0009 1.01468 0.99794
1.0254 1.00345 1.02477 0.997169
1.00893 1.01045 1.00285 0.995654
1.0348 1.02463 1.01348 0.996491
1.04789 1.05076 1.00111 0.996169
1.06355 1.0977 0.972249 0.996549
1.08031 1.09257 0.993136 0.995606
1.07507 1.09435 0.986303 0.996022
1.01541 1.0159 1.00433 0.995201
1.02198 1.02721 1 0.994905
1.00418 1 1.00528 0.998909
1.00782 1.00009 1.00957 0.998173
1.00175 1 1.00357 0.998182
1.00659 1 1.0083 0.998306
1.00333 1 1.00486 0.998485
1.00829 1 1.01015 0.998165
1.00333 1 1.00507 0.998276
1.00778 1 1.00969 0.998109
1.00061 1 1.00203 0.998586
0.999363 1 1 0.999363
0.999355 1 1 0.999355
0.99996 1 1 0.99996
0.999747 1 1.00048 0.999264
0.999937 1 1 0.999937
1 1 1 1
0.999904 1 1 0.999904
0.999998 1 1 0.999998
1 1 1 1
1.00034 1 1.00051 0.99983
1.00199 1 1.00231 0.999677
1 1 1 1
1.00469 1 1.00522 0.999477
1 1 1 1
1 1 1 1
1.07871 1.09497 0.989078 0.996026
1.07827 1.0917 0.991373 0.99629
1.07825 1.10072 0.98298 0.996549
1.07653 1.09696 0.984729 0.996594
1.07556 1.08982 0.990536 0.996345
1.08975 1.09787 0.996662 0.995929
1.07558 1.08934 0.991021 0.99631
1.07791 1.09737 0.985696 0.996519
1.07837 1.09763 0.985825 0.99658
1.07745 1.10396 0.979219 0.996692
1.07817 1.10085 0.983012 0.996327
1.07963 1.10698 0.978475 0.996754
1.07809 1.09711 0.986113 0.996498
1.08118 1.10797 0.979062 0.996688
1.07892 1.10746 0.977387 0.996766
1.07375 1.1089 0.971464 0.996745
1.07597 1.08903 0.991667 0.996308
1.07796 1.09148 0.991389 0.99619
1.07306 1.09192 0.986163 0.996514
1.07377 1.09637 0.982846 0.996483
1.05077 1.05073 1.00456 0.995498
1.06421 1.06951 1 0.995044
1.07091 1.07576 1.00058 0.994916
1.07313 1.09274 0.985704 0.996299
1.07045 1.09764 0.978407 0.996748
1.06428 1.09166 0.978255 0.996591
1.06805 1.07838 0.994824 0.995575
1.06447 1.0874 0.982321 0.996533
1.02513 1.02456 1.00514 0.995446
1.0161 1.01112 1.00951 0.995463
1.02135 1.00605 1.01897 0.996309
1.01164 1.0021 1.01137 0.998167
1.01935 1.00068 1.02164 0.997077
1.07589 1.09563 0.985425 0.996504
1.07696 1.09932 0.983103 0.996502
1.07291 1.10468 0.974481 0.996673
1.04124 1.04602 1.00021 0.995225
1.04465 1.04981 1.00026 0.994831
1.05823 1.06407 0.999693 0.99482
1.06849 1.0958 0.978333 0.996674
1.06588 1.08297 0.988415 0.995748
1.06102 1.091 0.975721 0.996723
1.00813 1 1.0095 0.998642
1.0169 1.01584 1.00572 0.995343
1.02127 1.01031 1.01547 0.995448
1.02603 1.01015 1.02002 0.995781
1.02389 1.01282 1.01422 0.996752
1.02258 1.00424 1.02099 0.997322
1.07997 1.10587 0.97994 0.996569
1.0769 1.11218 0.971543 0.996642
1.06553 1.10441 0.967954 0.996741
1.05736 1.09631 0.967497 0.996867
1.02388 1.02859 1.00031 0.995106
1.05397 1.07886 0.980547 0.996306
1.02803 1.03199 1.00165 0.994525
1.04177 1.0513 0.996197 0.99472
1.00187 1 1.00276 0.999117
1.0173 1 1.01944 0.997897
1.01934 1.00696 1.0153 0.997041
1.02949 1.00957 1.02361 0.996222
1.01176 1.00618 1.0102 0.995395
1.02644 1.00866 1.02255 0.995183
1.00958 1 1.01091 0.998686
1.01854 1 1.021 0.997585
1.07392 1.09576 0.983945 0.996062
1.02559 1.01169 1.0169 0.99689
1.02569 1.02476 1.00533 0.995598
1.02513 1.02444 1.00439 0.996296
1.08194 1.09216 0.994834 0.995787
1.06851 1.09204 0.982246 0.996137
1.01547 1.01766 1.00273 0.995132
1.04707 1.05228 0.999945 0.995103
1.01198 1.00016 1.0139 0.997949
1.02466 1.00318 1.02437 0.997118
1.00984 1.01087 1.00335 0.995642
1.03587 1.02705 1.01216 0.996469
1.05348 1.05692 1.00056 0.996191
1.06661 1.10034 0.972659 0.996596
1.08 1.09221 0.993124 0.995665
1.0754 1.09385 0.986964 0.996119
1.018 1.01828 1.00458 0.995163
1.02078 1.02609 1.00003 0.994796
1.00869 1 1.01094 0.997778
1.02395 1.00352 1.02353 0.996905
1.02853 1.02903 1.00378 0.995745
1.04524 1.04618 1.00301 0.996104
1.0671 1.126 0.950707 0.996828
1.05981 1.09412 0.971959 0.996583
1.05923 1.06629 0.99829 0.995088
1.02976 1.03076 1.00426 0.994796
1.007 1 1.00884 0.998174
1.00318 0.999968 1.00507 0.998156