# vtk DataFile Version 2.0
Wound Healing Simulation
ASCII
DATASET UNSTRUCTURED_GRID
POINTS 3012 float
69.9759 18.75 4
67.2507 60.3285 4
69.976 18.75 2
73.0099 25.446 4
71.1327 20.9142 4
68.6801 16.6661 4
67.8255 19.9261 3.98258
67.2507 60.3286 2
71.1327 54.0858 4
68.6801 58.3339 4
65.6939 62.2254 4
65.312 59.0011 3.98168
74.6784 42.3946 4
73.7221 47.2057 4
69.9759 18.75 0
73.0099 25.446 2
68.6801 16.6661 2
71.1327 20.9142 2
67.826 19.929 2
74.6792 32.6053 4
73.7222 27.7943 4
72.1454 23.1494 4
70.6142 26.2209 3.98218
68.8857 21.958 3.98301
67.2507 14.6715 4
66.6368 17.9721 3.98146
65.7964 21.0257 3.9732
67.2507 60.3285 0
71.1327 54.0858 2
68.6801 58.3339 2
65.694 62.2255 2
65.3131 58.9977 2
72.1454 51.8506 4
69.9759 56.25 4
68.8363 53.113 3.98205
64.0165 64.0165 4
66.6106 57.1336 3.982
63.8856 60.766 3.98372
63.4992 57.7698 3.97327
60.3285 67.2507 4
74.6792 42.3947 2
73.7222 47.2057 2
74.9194 39.9526 4
74.2788 44.8158 4
72.1682 42.0855 3.98119
73.0099 49.554 4
71.2492 46.598 3.98113
73.0099 25.446 0
71.1327 20.9142 0
68.6801 16.6661 0
67.8255 19.9261 0.0174197
74.6792 32.6053 2
73.7222 27.7943 2
67.2508 14.6715 2
72.1455 23.1494 2
70.6142 26.2213 2
66.6376 17.9757 2
68.886 21.96 2
65.7958 21.0262 2
74.9197 35.0474 4
74.2794 30.1841 4
72.1848 32.9432 3.98162
71.2782 28.4313 3.98156
69.8156 24.0595 3.98279
68.3463 26.9514 3.97166
66.7619 22.9334 3.97243
65.694 12.7746 4
65.3234 16.1037 3.98187
64.7124 19.1964 3.9733
63.8842 22.0375 3.9689
71.1327 54.0858 0
65.6939 62.2254 0
68.6801 58.3339 0
65.312 59.0011 0.0183249
72.1455 51.8506 2
69.9759 56.25 2
68.8365 53.1111 2
64.0165 64.0165 2
66.6114 57.1302 2
63.8872 60.7633 2
63.4986 57.7698 2
62.2254 65.694 4
58.8947 65.4143 3.99103
69.7689 50.9888 3.9819
67.7836 55.1672 3.98202
66.6487 52.2086 3.97148
62.3361 62.4276 3.98684
64.6598 56.0305 3.97334
62.2019 59.4024 3.97461
61.8191 56.6763 3.96866
58.3339 68.6801 4
60.3285 67.2508 2
73.7221 47.2057 0
74.6784 42.3946 0
74.9197 39.9526 2
74.2794 44.8159 2
72.1678 42.0856 2
73.0099 49.554 2
71.2492 46.5978 2
75 37.5 4
72.4054 39.8022 3.98156
71.7825 44.3528 3.98126
69.8034 41.7893 3.971
70.5751 48.8135 3.98147
68.9115 46.0143 3.97071
74.6792 32.6053 0
73.7222 27.7943 0
67.2507 14.6715 0
72.1454 23.1494 0
70.6142 26.2209 0.0178249
68.8857 21.958 0.0169925
66.6368 17.9721 0.0185423
65.7964 21.0257 0.0268027
74.9197 35.0474 2
74.2794 30.1841 2
72.1845 32.9435 2
71.2781 28.4316 2
65.694 12.7745 2
65.3247 16.1071 2
69.8156 24.0606 2
68.3462 26.9518 2
64.7118 19.1968 2
66.7614 22.9339 2
63.8836 22.0376 2
72.4133 35.2241 3.98165
71.8039 30.6762 3.98165
69.8395 33.2682 3.97151
68.9655 29.0382 3.97139
67.6107 24.9121 3.97198
66.1924 27.6354 3.96834
64.0165 10.9835 4
64.754 23.8315 3.96875
63.8901 14.3272 3.98478
63.5116 17.4495 3.97353
62.9028 20.3242 3.96869
62.0847 22.9485 3.96746
60.684 11.0979 3.98777
57.612 11.4495 3.98004
72.1454 51.8506 0
69.9759 56.25 0
68.8363 53.113 0.0179473
64.0165 64.0165 0
63.8856 60.766 0.0162795
66.6106 57.1336 0.0179987
63.4992 57.7698 0.0267277
62.2255 65.694 2
58.8957 65.4138 2
69.7689 50.9879 2
67.7841 55.1643 2
66.6482 52.2081 2
62.3378 62.4258 2
64.6593 56.0302 2
62.2015 59.403 2
61.8185 56.6767 2
60.6688 63.9771 3.98899
57.0257 66.7348 3.99182
57.5579 63.6912 3.98273
67.5067 50.1762 3.97087
65.701 54.1725 3.97212
64.5349 51.3831 3.96763
60.7726 60.9364 3.97817
62.8166 55.0641 3.9688
60.6549 58.1537 3.96849
60.3211 55.7759 3.96966
56.25 69.9759 4
58.3339 68.6801 2
60.3285 67.2507 0
58.9213 9.65614 3.98893
62.2254 9.30607 4
73.0099 49.554 0
74.2788 44.8158 0
71.2492 46.598 0.018871
72.1682 42.0855 0.0188109
74.9194 39.9526 0
75 37.5 2
72.4054 39.8023 2
71.7824 44.3526 2
69.8031 41.789 2
70.575 48.8132 2
68.9115 46.0138 2
72.4888 37.512 3.98133
70.0406 39.657 3.97107
69.4296 43.907 3.97083
67.5955 41.4965 3.96842
68.2652 48.1066 3.97071
66.7075 45.4384 3.96782
74.9197 35.0474 0
74.2794 30.1841 0
72.1848 32.9432 0.0183762
71.2782 28.4313 0.0184415
65.694 12.7746 0
65.3234 16.1037 0.0181266
69.8156 24.0595 0.017212
68.3463 26.9514 0.0283443
66.7619 22.9334 0.0275746
64.7124 19.1964 0.026698
63.8842 22.0375 0.0310968
72.4132 35.2241 2
71.8039 30.6766 2
69.8392 33.2685 2
68.9655 29.0384 2
64.0165 10.9835 2
63.8917 14.3299 2
63.5112 17.4495 2
67.6104 24.9125 2
66.1923 27.6356 2
62.9021 20.3242 2
64.7536 23.8317 2
62.0839 22.9485 2
60.6856 11.0996 2
57.6125 11.4485 2
70.0574 35.3917 3.97131
69.4665 31.1494 3.97128
67.6538 33.591 3.96872
66.77 29.6234 3.96826
65.5218 25.7003 3.96857
64.1273 28.2599 3.96928
62.3417 12.6551 3.98669
62.8461 24.6421 3.96822
62.1984 15.7869 3.97656
61.8081 18.691 3.96772
61.2098 21.3482 3.96633
60.3996 23.7383 3.96851
59.246 12.7811 3.97869
55.8742 10.2352 3.98229
56.4042 13.1195 3.97571
69.7689 50.9888 0.0181024
62.2254 65.694 0
58.8947 65.4143 0.00896613
67.7836 55.1672 0.0179833
66.6487 52.2086 0.0285222
62.3361 62.4276 0.0131576
62.2019 59.4024 0.025389
64.6598 56.0305 0.0266611
61.8191 56.6763 0.031337
60.6702 63.976 2
57.0264 66.7347 2
57.5581 63.6926 2
67.5065 50.1756 2
65.7004 54.172 2
64.5345 51.383 2
60.7727 60.9378 2
62.8161 55.0643 2
60.6545 58.1545 2
60.3206 55.7761 2
55.0714 67.9318 3.99224
59.2189 62.3649 3.97965
55.8049 64.9097 3.98582
56.326 62.0874 3.9779
65.3293 49.4064 3.96748
63.7027 53.2895 3.96805
62.4243 50.6444 3.96715
59.3314 59.5531 3.97338
61.07 54.3013 3.96831
59.2824 56.9984 3.9659
59.2321 55.1706 3.96763
48.1028 68.5782 3.98796
50.9491 69.9314 3.99246
54.0858 71.1327 4
56.25 69.976 2
58.3339 68.6801 0
57.0587 8.33607 3.98993
60.3285 7.74928 4
58.9227 9.65722 2
62.2255 9.30602 2
70.5751 48.8135 0.0185307
71.7825 44.3528 0.0187447
68.9115 46.0143 0.0292931
69.8034 41.7893 0.0289998
72.4054 39.8022 0.0184395
75 37.5 0
72.4884 37.5121 2
70.0406 39.6569 2
69.4296 43.9067 2
67.5951 41.4964 2
68.2652 48.1061 2
66.7074 45.4382 2
70.1287 37.5213 3.97123
67.8328 39.5116 3.96859
67.2215 43.4686 3.96806
65.5254 41.2063 3.97051
66.0663 47.4163 3.96767
64.624 44.8425 3.96929
72.4133 35.2241 0.0183514
71.8039 30.6762 0.0183518
69.8395 33.2682 0.0284862
68.9655 29.0382 0.0286115
64.0165 10.9835 0
63.8901 14.3272 0.0152184
63.5116 17.4495 0.026471
67.6107 24.9121 0.0280188
66.1924 27.6354 0.0316635
64.754 23.8315 0.0312549
62.9028 20.3242 0.0313072
62.0847 22.9485 0.0325446
60.684 11.0979 0.0122324
57.612 11.4495 0.0199587
70.0573 35.3919 2
69.4664 31.1497 2
67.6535 33.5912 2
66.77 29.6235 2
62.3434 12.6574 2
62.198 15.7865 2
61.8076 18.6907 2
65.5215 25.7004 2
64.1266 28.26 2
61.2091 21.3481 2
62.8455 24.6422 2
60.3994 23.7386 2
59.2462 12.7807 2
56.4043 13.1183 2
55.8746 10.2341 2
67.869 35.5474 3.96876
67.2633 31.6227 3.96846
65.6753 33.9287 3.97079
64.6405 30.1958 3.96951
63.5231 26.4189 3.96884
62.2106 28.7868 3.97255
60.7752 14.2255 3.97859
61.0136 25.3482 3.9701
60.609 17.1338 3.97149
60.2095 19.8262 3.96525
59.6333 22.2709 3.96565
58.9338 24.3363 3.9706
54.0376 9.13728 3.98388
57.9092 14.3377 3.97705
54.7863 12.0173 3.97768
55.3104 14.6568 3.97492
67.5067 50.1762 0.0291287
57.0257 66.7348 0.00818189
60.6688 63.9771 0.0110125
57.5579 63.6912 0.0172725
65.701 54.1725 0.0278775
64.5349 51.3831 0.0323684
60.7726 60.9364 0.0218253
60.6549 58.1537 0.031509
62.8166 55.0641 0.0312031
60.3211 55.7759 0.0303378
55.0719 67.9318 2
59.219 62.3662 2
55.8048 64.9107 2
56.3259 62.0888 2
65.329 49.4063 2
63.702 53.2895 2
62.4246 50.6444 2
59.3313 59.5546 2
61.0697 54.3013 2
59.2821 56.9983 2
59.2319 55.1705 2
53.0433 68.9996 3.99235
53.9673 66.0126 3.98709
57.8793 60.8667 3.97668
54.6837 63.2059 3.98172
55.2094 60.6102 3.97628
63.1702 48.6535 3.96786
61.7307 52.5679 3.96693
60.2265 50.0033 3.96874
58.0129 58.2539 3.96966
59.3157 53.9343 3.9672
58.1127 55.7953 3.96565
50.1095 67.8563 3.98781
47.4633 66.5797 3.98492
46.0564 69.1573 3.98804
48.1028 68.5787 2
48.8032 70.7227 3.99256
50.9495 69.9315 2
51.8506 72.1454 4
54.0858 71.1327 2
56.25 69.9759 0
55.1033 7.14053 3.99094
58.3339 6.31992 4
57.0599 8.33658 2
60.3286 7.74926 2
58.9213 9.65614 0.0110658
62.2254 9.30607 0
68.2652 48.1066 0.0292866
69.4296 43.907 0.0291694
66.7075 45.4384 0.0321809
67.5955 41.4965 0.0315761
70.0406 39.657 0.0289329
72.4888 37.512 0.0186732
70.1284 37.5213 2
67.8328 39.5116 2
67.2214 43.4684 2
65.5249 41.2061 2
66.0663 47.4162 2
64.6235 44.8423 2
67.9292 37.5216 3.96869
65.7584 39.368 3.97075
65.1485 43.0206 3.96999
63.6854 40.9236 3.97369
63.936 46.7096 3.96855
62.7442 44.2058 3.97299
70.0574 35.3917 0.0286859
69.4665 31.1494 0.0287238
67.6538 33.591 0.0312819
66.77 29.6234 0.0317386
62.3417 12.6551 0.0133107
62.1984 15.7869 0.0234432
61.8081 18.691 0.0322812
65.5218 25.7003 0.0314328
64.1273 28.2599 0.0307231
62.8461 24.6421 0.0317844
61.2098 21.3482 0.0336743
60.3996 23.7383 0.0314869
59.246 12.7811 0.0213102
56.4042 13.1195 0.0242948
55.8742 10.2352 0.017705
67.8689 35.5475 2
67.2632 31.6229 2
65.6749 33.9287 2
64.64 30.1959 2
60.7751 14.2251 2
60.6086 17.1328 2
60.2096 19.8259 2
63.5227 26.419 2
62.2094 28.7871 2
59.6351 22.271 2
61.0131 25.3485 2
58.9328 24.337 2
57.9087 14.3368 2
55.31 14.6565 2
54.0378 9.13631 2
54.7864 12.0157 2
65.8493 35.6671 3.97075
65.1589 32.1571 3.97004
64.2319 34.2517 3.97376
62.5283 30.6439 3.97328
61.6069 27.0827 3.97105
60.7768 29.1526 3.97604
59.309 15.6738 3.97575
59.2696 25.8131 3.97359
59.114 18.3665 3.96842
58.717 20.8679 3.96376
58.239 23.11 3.96632
57.9066 24.6849 3.97263
52.1123 8.15485 3.98531
53.058 11.0214 3.97975
56.6736 15.7515 3.97634
53.8081 13.6903 3.97583
54.372 16.0125 3.97639
55.0714 67.9318 0.00775797
65.3293 49.4064 0.0325248
55.8049 64.9097 0.0141751
59.2189 62.3649 0.0203514
56.326 62.0874 0.0220992
63.7027 53.2895 0.0319541
62.4243 50.6444 0.0328501
59.3314 59.5531 0.0266163
59.2824 56.9984 0.0340974
61.07 54.3013 0.0316901
59.2321 55.1706 0.0323705
53.0437 68.9996 2
53.9672 66.0133 2
57.879 60.868 2
54.6835 63.2071 2
55.2094 60.6117 2
63.1699 48.6533 2
61.7317 52.568 2
60.226 50.0029 2
58.0125 58.2555 2
59.316 53.9341 2
58.1119 55.7948 2
52.0707 66.9993 3.9876
52.9536 64.2176 3.98371
56.645 59.483 3.97485
53.6802 61.6192 3.97875
[...]
POINT_DATA 3012
SCALARS Jp_lamdaP float 4
LOOKUP_TABLE default
0.99992 1 1 0.99992
1 1 1 1
0.999923 1 1 0.999923
0.999887 1 1 0.999887
0.999918 1 1 0.999918
0.999922 1 1 0.999922
0.999529 1 1 0.999529
1 1 1 1
1 1 1 1
1 1 1 1
0.999983 1 1 0.999983
0.999701 1 1 0.999701
0.999846 1 1 0.999846
0.999878 1 1 0.999878
0.999923 1 1 0.999923
0.999897 1 1 0.999897
0.999926 1 1 0.999926
0.999923 1 1 0.999923
0.999532 1 1 0.999532
1 1 1 1
0.999872 1 1 0.999872
0.999905 1 1 0.999905
0.999408 1 1 0.999408
0.999496 1 1 0.999496
0.999946 1 1 0.999946
0.999571 1 1 0.999571
0.998901 1 1 0.998901
1 1 1 1
0.99995 1 1 0.99995
0.999963 1 1 0.999963
1 1 1 1
0.999709 1 1 0.999709
0.999896 1 1 0.999896
0.999917 1 1 0.999917
0.999589 1 1 0.999589
1 1 1 1
0.99968 1 1 0.99968
0.999782 1 1 0.999782
0.998986 1 1 0.998986
1 1 1 1
1 1 1 1
0.999937 1 1 0.999937
1 1 1 1
0.999868 1 1 0.999868
0.999345 1 1 0.999345
1 1 1 1
0.999507 1 1 0.999507
0.999906 1 1 0.999906
0.999926 1 1 0.999926
0.999929 1 1 0.999929
0.999537 1 1 0.999537
0.999922 1 1 0.999922
0.999882 1 1 0.999882
0.999953 1 1 0.999953
0.999913 1 1 0.999913
0.999409 1 1 0.999409
0.999576 1 1 0.999576
0.999499 1 1 0.999499
0.998887 1 1 0.998887
1 1 1 1
0.999857 1 1 0.999857
0.999464 1 1 0.999464
0.999377 1 1 0.999377
0.999452 1 1 0.999452
0.998614 1 1 0.998614
0.998749 1 1 0.998749
0.999981 1 1 0.999981
0.999683 1 1 0.999683
0.999011 1 1 0.999011
0.998804 1.00051 1 0.998295
1 1 1 1
1 1 1 1
1 1 1 1
0.999717 1 1 0.999717
1 1 1 1
1 1 1 1
0.999544 1 1 0.999544
0.999998 1 1 0.999998
0.999651 1 1 0.999651
0.999809 1 1 0.999809
0.998984 1 1 0.998984
1 1 1 1
0.999987 1 1 0.999987
0.999493 1 1 0.999493
0.999582 1 1 0.999582
0.998589 1 1 0.998589
0.999888 1 1 0.999888
0.998886 1 1 0.998886
0.999103 1 1 0.999103
0.998548 1 1 0.998548
1 1 1 1
1 1 1 1
1 1 1 1
1 1 1 1
1 1 1 1
0.99993 1 1 0.99993
0.999402 1 1 0.999402
0.999942 1 1 0.999942
0.99948 1 1 0.99948
1 1 1 1
0.999321 1 1 0.999321
0.999476 1 1 0.999476
0.998274 1 1 0.998274
0.999537 1 1 0.999537
0.998376 1 1 0.998376
0.999861 1 1 0.999861
0.999892 1 1 0.999892
0.99996 1 1 0.99996
0.99992 1 1 0.99992
0.999411 1 1 0.999411
0.999504 1 1 0.999504
0.999581 1 1 0.999581
0.998872 1 1 0.998872
1 1 1 1
0.999868 1 1 0.999868
0.999345 1 1 0.999345
0.999377 1 1 0.999377
0.999991 1 1 0.999991
0.999725 1 1 0.999725
0.999454 1 1 0.999454
0.998579 1 1 0.998579
0.998992 1 1 0.998992
0.998774 1 1 0.998774
0.999002 1.00071 1 0.998298
0.999341 1 1 0.999341
0.999351 1 1 0.999351
0.998401 1 1 0.998401
0.998507 1 1 0.998507
0.998635 1 1 0.998635
1.00162 1.00357 1 0.998061
1 1 1 1
0.999487 1.00127 1 0.998217
0.999862 1 1 0.999862
0.999079 1 1 0.999079
0.998525 1.00015 1 0.998373
1.00286 1.00481 1 0.998064
0.99995 1 1 0.99995
0.999457 1 1 0.999457
1 1 1 1
1 1 1 1
0.999551 1 1 0.999551
1 1 1 1
0.99982 1 1 0.99982
0.999656 1 1 0.999656
0.998981 1 1 0.998981
1 1 1 1
0.999992 1 1 0.999992
0.99953 1 1 0.99953
0.999617 1 1 0.999617
0.998591 1 1 0.998591
0.999907 1 1 0.999907
0.998888 1 1 0.998888
0.999103 1 1 0.999103
0.998534 1 1 0.998534
0.999952 1 1 0.999952
1 1 1 1
0.999586 1 1 0.999586
0.998479 1 1 0.998479
0.998742 1 1 0.998742
1.00125 1.00316 1 0.998101
0.999259 1 1 0.999259
0.998711 1.00028 1 0.998433
0.999161 1 1.00052 0.99864
0.998393 1 1 0.998393
1 1 1 1
1 1 1 1
1 1 1 1
0.999974 1 1 0.999974
1 1 1 1
1 1 1 1
1 1 1 1
0.99945 1 1 0.99945
0.999367 1 1 0.999367
1 1 1 1
1 1 1 1
0.999323 1 1 0.999323
0.999448 1 1 0.999448
0.998274 1 1 0.998274
0.999476 1 1 0.999476
0.998376 1 1 0.998376
0.999311 1 1 0.999311
0.998217 1 1 0.998217
0.998335 1 1 0.998335
1.00445 1.00662 1 0.997842
0.998415 1 1 0.998415
1.00372 1.00579 1 0.997938
1 1 1 1
0.999879 1 1 0.999879
0.999219 1 1 0.999219
0.999378 1 1 0.999378
1 1 1 1
0.999766 1 1 0.999766
0.999458 1 1 0.999458
0.998544 1 1 0.998544
0.998798 1 1 0.998798
0.998972 1 1 0.998972
0.999203 1.0009 1 0.9983
0.999338 1 1 0.999338
0.99935 1 1 0.99935
0.998328 1 1 0.998328
0.998532 1 1 0.998532
1 1 1 1
0.99985 1 1 0.99985
0.999113 1 1 0.999113
0.998635 1 1 0.998635
1.00164 1.00363 1 0.998023
0.998624 1.00026 1 0.998366
0.999772 1.00153 1 0.998241
1.00265 1.00459 1 0.998068
0.999942 1 1 0.999942
0.999457 1 1 0.999457
0.998234 1 1 0.998234
0.99846 1 1 0.99846
1.00318 1.00526 1 0.997933
1.00199 1.00406 1 0.997938
1.00032 1.00217 1 0.998154
1.0087 1.01082 1 0.997902
0.999915 1 1 0.999915
1.00411 1.0061 1 0.998019
0.999203 1 1 0.999203
0.998773 1.00025 1 0.998523
1.00205 1.00392 1 0.998132
1.00739 1.00939 1 0.998022
0.999346 1 1 0.999346
0.999594 1 1 0.999594
0.999003 1 1 0.999003
0.999508 1 1 0.999508
1 1 1 1
0.999997 1 1 0.999997
0.999606 1 1 0.999606
0.998594 1 1 0.998594
0.99992 1 1 0.99992
0.999103 1 1 0.999103
0.998891 1 1 0.998891
0.998519 1 1 0.998519
0.999964 1 1 0.999964
1 1 1 1
0.999588 1 1 0.999588
0.99848 1 1 0.99848
0.998746 1 1 0.998746
1.00074 1.00264 1 0.9981
0.99926 1 1 0.99926
0.998632 1.00019 1 0.998444
0.998946 1 1.00031 0.998636
0.998426 1.00005 1 0.998381
1 1 1 1
0.999414 1 1 0.999414
0.99975 1 1 0.99975
0.999136 1 1 0.999136
1.00266 1.00466 1 0.998006
0.999764 1.00149 1 0.998274
1.0065 1.00862 1 0.997893
0.999252 1 1.00044 0.998817
1.00026 1.002 1 0.998268
0.999939 1 1.00158 0.998364
0.999844 1.00159 1 0.998256
0.999924 1 1 0.999924
1 1 1 1
1 1 1 1
1 1 1 1
1 1 1 1
0.999989 1 1 0.999989
1 1 1 1
0.999968 1 1 0.999968
1 1 1 1
0.999477 1 1 0.999477
0.999415 1 1 0.999415
0.998376 1 1 0.998376
0.998274 1 1 0.998274
0.999325 1 1 0.999325
1 1 1 1
0.99931 1 1 0.99931
0.998217 1 1 0.998217
0.998334 1 1 0.998334
1.00436 1.00653 1 0.997841
0.998415 1 1 0.998415
1.00374 1.00581 1 0.997937
0.998206 1 1 0.998206
1.0044 1.00663 1 0.997788
1.00408 1.0062 1 0.997897
1.01523 1.01748 1 0.997789
1.00353 1.00558 1 0.997966
1.01333 1.01552 1 0.997847
0.999335 1 1 0.999335
0.99935 1 1 0.99935
0.998255 1 1 0.998255
0.998558 1 1 0.998558
1 1 1 1
0.999838 1 1 0.999838
0.999147 1 1 0.999147
0.998636 1 1 0.998636
1.00167 1.00369 1 0.997985
1.00006 1.00179 1 0.998265
0.99871 1.00035 1 0.998358
1.00251 1.00445 1 0.998073
0.999934 1 1 0.999934
0.999457 1 1 0.999457
0.998212 1 1 0.998212
0.998458 1 1 0.998458
1.00336 1.00545 1 0.997923
1.0022 1.00423 1 0.997976
0.999906 1 1 0.999906
0.9992 1 1 0.9992
0.99875 1.0002 1 0.998555
1.00052 1.00237 1 0.998155
1.00902 1.01115 1 0.997901
1.00178 1.00369 1 0.998099
1.00424 1.00623 1 0.998021
1.00766 1.00965 1 0.998022
0.999349 1 1 0.999349
0.99913 1 1.00013 0.999002
0.999592 1 1 0.999592
1.00371 1.00586 1 0.997871
1.00337 1.00542 1 0.997955
1.0136 1.01585 1 0.997786
1.01075 1.01294 1 0.997835
1.0062 1.00825 1 0.997966
1.01422 1.01629 1 0.997968
0.999285 1 1 0.999285
1.00953 1.01154 1 0.998015
0.998791 1 1 0.998791
0.99907 1.00089 1 0.998182
1.00543 1.00749 1 0.997957
1.01053 1.01244 1 0.998117
0.999705 1 1 0.999705
0.998985 1 1 0.998985
0.99915 1 1.00008 0.999069
0.99896 1 1.00011 0.998847
0.998481 1 1 0.998481
1 1 1 1
0.999976 1 1 0.999976
0.99959 1 1 0.99959
0.998751 1 1 0.998751
1.00022 1.00213 1 0.998098
0.999262 1 1 0.999262
0.998761 1 1.00013 0.998633
0.998501 1.00005 1 0.998455
0.998423 1.00005 1 0.998369
1 1 1 1
0.999414 1 1 0.999414
0.999756 1 1 0.999756
0.999134 1 1 0.999134
1.00225 1.00426 1 0.998003
0.999325 1.00105 1 0.998276
1.0065 1.00862 1 0.997892
0.999145 1 1.00032 0.998821
0.999671 1.00139 1 0.998282
1.0001 1.00003 1.00173 0.998353
0.999432 1.00111 1 0.998326
1 1 1 1
0.999848 1 1 0.999848
0.998989 1 1 0.998989
0.999301 1 1 0.999301
0.999159 1 1.00027 0.998887
1.00892 1.0111 1 0.997842
1.00339 1.00534 1 0.998067
1.00932 1.01148 1 0.997864
1.00049 1 1.00199 0.998497
1.00095 1.00276 1 0.99819
0.999941 1.00099 1.00086 0.998094
0.999911 1 1 0.999911
0.999611 1 1 0.999611
0.999932 1 1 0.999932
0.999926 1 1 0.999926
1 1 1 1
1 1 1 1
1 1 1 1
1 1 1 1
1 1 1 1
0.999998 1 1 0.999998
1 1 1 1
0.999985 1 1 0.999985
1 1 1 1
0.999961 1 1 0.999961
1 1 1 1
0.998415 1 1 0.998415
0.998334 1 1 0.998334
1.00376 1.00583 1 0.997937
1.00425 1.00642 1 0.99784
0.998217 1 1 0.998217
0.999309 1 1 0.999309
0.998205 1 1 0.998205
1.00445 1.00667 1 0.997789
1.00395 1.00606 1 0.997897
1.01544 1.01769 1 0.997792
1.00335 1.00539 1 0.997964
1.01278 1.01496 1 0.997847
1.00421 1.00645 1 0.997776
1.01602 1.01831 1 0.997755
1.01464 1.01686 1 0.997819
1.02035 1.02253 1 0.997867
1.01087 1.01305 1 0.99785
1.01649 1.01854 1 0.997986
0.99819 1 1 0.99819
0.998456 1 1 0.998456
1.00351 1.00561 1 0.997912
1.0024 1.00439 1 0.998015
0.999896 1 1 0.999896
0.999198 1 1 0.999198
0.998737 1.00015 1 0.998587
1.00073 1.00258 1 0.998155
1.00934 1.01147 1 0.9979
1.00436 1.00635 1 0.998023
1.00147 1.00341 1 0.998067
1.00789 1.00988 1 0.998022
0.999351 1 1 0.999351
0.999259 1 1.00026 0.999002
0.999589 1 1 0.999589
1.00386 1.00604 1 0.997838
1.00332 1.00537 1 0.997954
1.01346 1.0157 1 0.997785
1.01121 1.0134 1 0.997841
0.999285 1 1 0.999285
0.998785 1 1 0.998785
0.999235 1.00098 1.00003 0.998228
1.00642 1.00846 1 0.997973
1.01355 1.01559 1 0.99799
1.00549 1.00758 1 0.99793
1.00951 1.01152 1 0.998017
1.0099 1.01179 1 0.998134
0.998988 1 1 0.998988
0.999012 1 1.00018 0.99883
0.999701 1 1 0.999701
0.999196 1 1.00011 0.999088
1.0142 1.01651 1 0.997736
1.01362 1.01584 1 0.997821
1.0196 1.02185 1 0.997799
1.0156 1.0177 1 0.997941
1.01213 1.01414 1 0.998016
1.01498 1.01693 1 0.998088
0.99894 1 1 0.99894
1.01094 1.01278 1 0.998187
0.998494 1 1 0.998494
1.00099 1.00286 1.00018 0.997957
1.00851 1.01066 1 0.997877
1.01031 1.01218 1 0.998157
0.999771 1 1 0.999771
0.999204 1 1 0.999204
0.998835 1 1 0.998835
0.99944 1 1.00057 0.99887
0.998894 1 1.00011 0.998788
1 1 1 1
1.0018 1.00381 1 0.998001
0.999761 1 1 0.999761
0.999414 1 1 0.999414
0.999131 1 1 0.999131
0.998972 1.00069 1 0.998278
1.00646 1.00859 1 0.99789
0.999007 1 1.00018 0.998824
1.00036 1.00009 1.00193 0.998342
0.999164 1.00087 1 0.998296
0.999111 1.00072 1 0.998396
1 1 1 1
0.999853 1 1 0.999853
0.99899 1 1 0.99899
0.999301 1 1 0.999301
0.99916 1 1.00029 0.998868
1.00917 1.01136 1 0.997838
1.00297 1.00492 1 0.998067
1.00927 1.01144 1 0.997856
1.00063 1 1.00213 0.998501
1.00164 1.00344 1 0.998205
1.00012 1.00105 1.00096 0.998114
0.99989 1 1 0.99989
0.999445 1 1 0.999445
0.999181 1 1.00048 0.998705
0.999308 1 1.00029 0.999022
0.999423 1 1.00068 0.998742
1.01168 1.01385 1 0.997865
1.00521 1.00722 1 0.998004
1.00934 1.01136 1 0.998008
1.00204 1 1.00379 0.998259
1.00088 1.00291 1 0.997969
0.999914 1 1 0.999914
0.999549 1 1 0.999549
0.999592 1 1 0.999592
0.999412 1 1 0.999412
0.999618 1 1 0.999618
0.999934 1 1 0.999934
0.999933 1 1 0.999933
1 1 1 1
0.999928 1 1 0.999928
1 1 1 1
1 1 1 1
1 1 1 1
1 1 1 1
1 1 1 1
1 1 1 1
0.999996 1 1 0.999996
1 1 1 1
1 1 1 1
0.999981 1 1 0.999981
1 1 1 1
1.00318 1.00523 1 0.997962
1.00382 1.00594 1 0.997896
1.01224 1.01442 1 0.997846
1.01566 1.0179 1 0.997796
1.00452 1.00675 1 0.997789
0.998205 1 1 0.998205
1.00427 1.00651 1 0.997776
1.016 1.01829 1 0.997748
1.01447 1.01669 1 0.997819
1.02004 1.0222 1 0.997884
1.01107 1.01326 1 0.997846
1.01669 1.01873 1 0.997996
1.01508 1.0174 1 0.997723
1.01988 1.02211 1 0.997817
1.01849 1.02058 1 0.997951
1.0195 1.02166 0.999921 0.997962
1.01455 1.01664 1 0.997945
1.01787 1.01979 1 0.998119
1.00403 1.00624 1 0.997805
1.00327 1.00532 1 0.997953
1.01335 1.0156 1 0.997784
1.01169 1.01388 1 0.997846
0.999286 1 1 0.999286
0.998779 1 1 0.998779
0.999516 1.00106 1.00018 0.998275
1.00665 1.00869 1 0.99798
1.01288 1.0149 1 0.998012
1.00947 1.01148 1 0.998019
1.00556 1.00767 1 0.997903
1.00924 1.01111 1 0.998151
0.998991 1 1 0.998991
0.998964 1 1.00015 0.998812
0.999697 1 1 0.999697
0.999132 1 1.00003 0.999107
1.01416 1.01646 1 0.997737
1.01351 1.01574 1 0.997813
1.0195 1.02174 1 0.997809
1.01497 1.01707 1 0.997932
0.998937 1 1 0.998937
0.998565 1 1.00003 0.998534
1.00133 1.003 1.00039 0.997952
1.01181 1.01384 1 0.997998
1.0152 1.01711 1 0.998129
1.00823 1.01039 1 0.997866
1.01066 1.0125 1 0.99819
1.01111 1.01294 1 0.998192
0.998834 1 1 0.998834
0.998792 1 1.00001 0.998787
0.999615 1 1.00075 0.998866
0.999742 1 1 0.999742
0.999221 1 1 0.999221
1.0203 1.02256 1 0.99779
1.01891 1.02111 1 0.997848
1.01599 1.01794 1 0.998082
1.01297 1.01482 1 0.998173
0.998765 1 1 0.998765
1.01233 1.01404 1 0.998307
0.998598 1 1.00029 0.998311
1.00426 1.00604 1.00051 0.997727
1.00937 1.01156 1 0.997832
0.999772 1 1 0.999772
0.999372 1 1 0.999372
0.999284 1 1.00027 0.999011
0.998797 1 1 0.998797
1.00026 1 1.00155 0.998716
0.998736 1 1 0.998736
1 1 1 1
0.999859 1 1 0.999859
1.00949 1.01168 1 0.997833
0.999302 1 1 0.999302
0.99899 1 1 0.99899
0.999201 1 1.00035 0.998848
1.00246 1.0044 1 0.998068
1.00915 1.01132 1 0.997848
1.00079 1 1.00229 0.998505
0.999947 1.00104 1.00077 0.998134
1.0023 1.00409 1 0.998221
0.999894 1 1 0.999894
0.999447 1 1 0.999447
0.999125 1 1.00041 0.998712
0.999333 1 1.00031 0.999021
0.999664 1 1.00093 0.99873
1.01182 1.01399 1 0.997861
1.00557 1.00759 1 0.997996
1.00923 1.01122 1 0.99803
1.00148 1 1.00324 0.998239
1.0008 1.00281 1.00006 0.997938
0.999533 1 1 0.999533
0.999132 1 1 0.999132
1.00053 1 1.002 0.998539
1.0001 1 1.00133 0.998773
0.999561 1 1.00093 0.998628
1.01497 1.01681 1 0.99819
1.00543 1.00753 1 0.997922
1.00783 1.00979 1 0.998055
1.00304 1.00062 1.00433 0.998094
0.999592 1.00186 1 0.997734
0.999918 1 1 0.999918
0.999564 1 1 0.999564
0.999324 1 1 0.999324
0.999574 1 1 0.999574
0.999618 1 1 0.999618
0.999385 1 1 0.999385
0.99925 1 1 0.99925
0.999369 1 1 0.999369
0.999622 1 1 0.999622
0.999931 1 1 0.999931
0.999934 1 1 0.999934
1 1 1 1
0.999935 1 1 0.999935
1 1 1 1
1 1 1 1
1 1 1 1
1 1 1 1
1 1 1 1
1 1 1 1
1 1 1 1
1 1 1 1
0.999994 1 1 0.999994
1 1 1 1
1 1 1 1
1.01125 1.01343 1 0.997843
1.0143 1.01652 1 0.99782
1.01688 1.01892 1 0.998006
1.01975 1.0219 1 0.9979
1.01595 1.01825 1 0.997741
1.00432 1.00656 1 0.997777
1.01516 1.01749 1 0.997714
1.01987 1.02211 1 0.997811
1.01856 1.02067 1 0.997933
1.0192 1.02131 0.999961 0.99797
1.01398 1.01607 1 0.997945
1.01749 1.01937 1 0.998148
1.01937 1.02164 1 0.99778
1.02051 1.02273 0.999894 0.997936
1.0199 1.02194 0.999929 0.998076
1.01641 1.01822 1 0.99822
1.01408 1.01638 1 0.997737
1.01339 1.01561 1 0.997805
1.01937 1.0216 1 0.997819
1.01434 1.01645 1 0.997923
0.998934 1 1 0.998934
0.998574 1 1 0.998574
1.00166 1.00314 1.00058 0.997946
1.01146 1.01351 1 0.99798
1.01542 1.01728 1 0.998169
1.01048 1.01231 1 0.998192
1.00794 1.0101 1 0.997855
1.0118 1.0136 1 0.998226
0.998834 1 1 0.998834
0.998786 1 1 0.998786
0.999991 1 1.00113 0.998862
0.999712 1 1 0.999712
0.999238 1 1 0.999238
1.02014 1.02239 1 0.997793
1.01896 1.02115 1 0.997854
1.0159 1.01788 0.999983 0.998077
0.99876 1 1 0.99876
0.998738 1.00013 1.00026 0.998347
1.0041 1.00563 1.00076 0.997718
1.01335 1.01522 1 0.998162
1.00917 1.01131 1 0.997887
1.0117 1.01343 1 0.998296
0.999778 1 1 0.999778
0.998793 1 1 0.998793
0.998772 1 1 0.998772
1.00024 1 1.00153 0.998706
0.999229 1 1.00021 0.999021
0.999349 1 1 0.999349
1.0202 1.0224 1 0.997847
1.01963 1.0226 0.999106 0.997988
1.01532 1.01742 0.99977 0.998168
1.01671 1.0185 0.999912 0.998326
0.998654 1 1 0.998654
1.00978 1.01173 1 0.998065
0.999875 1.00028 1.00165 0.997949
1.00423 1.00561 1.00104 0.997593
0.999836 1 1 0.999836
0.999463 1 1 0.999463
0.999133 1 1 0.999133
1.00045 1 1.00168 0.998779
0.99872 1 1 0.99872
0.999054 1 1.00042 0.998631
0.999899 1 1 0.999899
0.999449 1 1 0.999449
1.01204 1.01422 1 0.997856
0.999317 1 1.0003 0.999019
0.998989 1 1.00027 0.998719
0.999993 1 1.00128 0.998718
1.00595 1.00798 1 0.997989
1.00924 1.01121 1 0.998051
1.00095 1 1.00273 0.99822
1.00081 1.00264 1.00027 0.997908
0.999535 1 1 0.999535
0.999142 1 1 0.999142
1.00054 1 1.00198 0.998557
1.00045 1 1.00168 0.998777
0.999142 1 1.00048 0.998667
1.01497 1.01679 1 0.998211
1.00517 1.00726 1 0.997923
1.00847 1.01036 1 0.998129
1.00305 1.0004 1.00458 0.998071
1.00004 1.00232 1.00003 0.997696
0.999266 1 1 0.999266
0.998931 1 1.00006 0.998867
1.00219 1 1.00378 0.998408
0.99989 1 1.00136 0.998535
1.01982 1.02307 0.998458 0.998357
1.01311 1.01496 0.999872 0.998303
1.00423 1.0065 1 0.997744
1.00287 1.00088 1.00426 0.997738
0.999579 1 1 0.999579
0.999336 1 1 0.999336
0.999193 1 1 0.999193
0.999618 1 1 0.999618
0.999358 1 1 0.999358
0.999621 1 1 0.999621
0.999231 1 1 0.999231
0.999379 1 1 0.999379
0.999123 1 1 0.999123
0.999218 1 1 0.999218
0.999365 1 1 0.999365
0.999613 1 1 0.999613
0.999926 1 1 0.999926
0.99993 1 1 0.99993
1 1 1 1
0.999934 1 1 0.999934
1 1 1 1
1 1 1 1
1 1 1 1
1 1 1 1
1 1 1 1
1 1 1 1
1 1 1 1
1 1 1 1
0.999999 1 1 0.999999
1 1 1 1
1 1 1 1
1.01341 1.0155 1 0.997945
1.01862 1.02075 1 0.997915
1.01708 1.01894 1 0.998177
1.01885 1.02092 0.999994 0.997979
1.01986 1.0221 1 0.997806
1.01526 1.01759 1 0.997705
1.01923 1.02149 1 0.997785
1.01964 1.02188 0.999876 0.997931
1.01967 1.02176 0.99987 0.998079
1.01772 1.01953 1 0.998218
1.02044 1.02265 0.999956 0.997886
1.02285 1.02667 0.998167 0.998103
1.02221 1.0245 0.99955 0.998217
1.01999 1.02224 1 0.997796
1.01902 1.02121 1 0.997859
1.01579 1.01778 0.999975 0.998073
0.998755 1 1 0.998755
0.998819 1.00026 1.00018 0.998384
1.00379 1.00524 1.00085 0.997709
1.01366 1.01554 1 0.998152
1.01123 1.01296 1 0.998284
1.00931 1.01139 1 0.997942
0.998789 1 1 0.998789
0.998809 1 1 0.998809
1.0001 1 1.00141 0.998695
0.999785 1 1 0.999785
0.999131 1 1.0001 0.99903
0.999327 1 1 0.999327
1.02089 1.02309 1 0.997851
1.02005 1.0227 0.999415 0.997993
1.01534 1.01738 0.999832 0.998158
0.998645 1 1 0.998645
0.999932 1.00051 1.0014 0.998023
1.00409 1.00558 1.0009 0.997614
1.01672 1.01853 0.999881 0.998339
1.01025 1.01221 1 0.998056
0.999866 1 1 0.999866
0.999463 1 1 0.999463
0.99873 1 1 0.99873
0.999276 1 1.0006 0.998677
1.00044 1 1.00166 0.998785
0.999114 1 1 0.999114
1.02322 1.02657 0.998709 0.998019
1.01637 1.02162 0.99673 0.99812
1.01689 1.01966 0.998928 0.998352
1.01423 1.01588 1 0.998373
0.999355 1 1.00088 0.998472
1.00348 1.00444 1.0014 0.997648
1.00097 1.00056 1.00264 0.997769
0.999933 1 1 0.999933
0.99964 1 1 0.99964
0.99949 1 1 0.99949
0.999182 1 1 0.999182
0.999259 1 1.00035 0.998905
0.999742 1 1.00109 0.998654
0.998753 1 1 0.998753
1.00639 1 1.00762 0.998779
0.999536 1 1 0.999536
0.999153 1 1 0.999153
1.01485 1.01665 1 0.998232
1.0007 1 1.00193 0.99878
1.00073 1 1.00215 0.998574
0.99874 1 1.00004 0.998705
1.00485 1.00694 1 0.997923
1.00909 1.01091 1 0.998203
1.00312 1.00026 1.00482 0.998049
1.00051 1.00286 1 0.997658
0.999254 1 1 0.999254
0.999127 1 1.00025 0.998876
1.00257 1 1.00415 0.998427
0.999611 1 1.00106 0.998557
1.02034 1.0235 0.998542 0.998362
1.01247 1.01427 0.999949 0.998279
1.00504 1.00727 1 0.997782
1.00235 1.00088 1.00377 0.997705
0.999091 1 1 0.999091
1.01916 1.02403 0.996896 0.998341
0.999885 1 1.00122 0.998664
1.00088 1 1.00268 0.998208
1.01778 1.02052 0.998859 0.998454
1.00618 1.00836 1 0.997842
1.00407 1.00327 1.00323 0.997574
0.999348 1 1 0.999348
0.999191 1 1 0.999191
0.999068 1 1 0.999068
0.999621 1 1 0.999621
0.999389 1 1 0.999389
0.999212 1 1 0.999212
0.999612 1 1 0.999612
0.999366 1 1 0.999366
0.999106 1 1 0.999106
0.999238 1 1 0.999238
0.999023 1 1 0.999023
0.999095 1 1 0.999095
0.99923 1 1 0.99923
0.999363 1 1 0.999363
0.999595 1 1 0.999595
0.99992 1 1 0.99992
0.999925 1 1 0.999925
1 1 1 1
0.99993 1 1 0.99993
1 1 1 1
1 1 1 1
1 1 1 1
1 1 1 1
1 1 1 1
0.999955 1 1 0.999955
1 1 1 1
1 1 1 1
1 1 1 1
1 1 1 1
1 1 1 1
1 1 1 1
1.01904 1.02086 1 0.998216
1.01947 1.02162 0.999817 0.998081
1.01879 1.02105 0.999864 0.997925
1.01908 1.02134 1 0.997791
1.02053 1.02277 0.999908 0.9979
1.02334 1.02702 0.998316 0.998091
1.02239 1.0248 0.999419 0.99823
1.02311 1.02788 0.997284 0.998073
1.02586 1.0304 0.997362 0.998224
1.01146 1.02145 0.991784 0.998419
1.02155 1.02375 1 0.997856
1.02046 1.02284 0.999671 0.997998
1.01537 1.01739 0.999868 0.998148
0.998692 1 1.00006 0.998636
1.0001 1.00074 1.00126 0.998097
1.00366 1.00526 1.00078 0.997634
1.01684 1.01867 0.999852 0.998351
1.01018 1.01215 1 0.998047
0.99874 1 1 0.99874
0.999548 1 1.00083 0.998723
1.00059 1 1.0018 0.998792
0.999895 1 1 0.999895
0.999463 1 1 0.999463
0.999095 1 1 0.999095
1.02253 1.02609 0.998488 0.998034
0.999929 1 1 0.999929
0.999623 1 1 0.999623
1.01651 1.02108 0.997408 0.998119
1.01769 1.0204 0.999019 0.99832