# vtk DataFile Version 2.0
Wound Healing Simulation
ASCII
DATASET UNSTRUCTURED_GRID
POINTS 3012 float
69.9759 18.75 4
67.2507 60.3285 4
69.976 18.75 2
73.0099 25.446 4
71.1327 20.9142 4
68.6801 16.6661 4
67.8245 19.9262 3.98027
67.2507 60.3286 2
71.1327 54.0858 4
68.6801 58.3339 4
65.6939 62.2254 4
65.3111 59.0006 3.97929
74.6784 42.3946 4
73.7221 47.2057 4
69.9759 18.75 0
73.0099 25.446 2
68.6801 16.6661 2
71.1327 20.9142 2
67.8251 19.9297 2
74.6792 32.6053 4
73.7222 27.7943 4
72.1454 23.1494 4
70.6133 26.2209 3.97981
68.8847 21.958 3.98066
67.2507 14.6715 4
66.6359 17.9725 3.97925
65.7938 21.0271 3.96953
67.2507 60.3285 0
71.1327 54.0858 2
68.6801 58.3339 2
65.694 62.2255 2
65.3124 58.9966 2
72.1454 51.8506 4
69.9759 56.25 4
68.8354 53.113 3.97985
64.0165 64.0165 4
66.6097 57.1334 3.97982
63.8841 60.7649 3.97945
63.4971 57.768 3.97069
60.3285 67.2507 4
74.6792 42.3947 2
73.7222 47.2057 2
74.9194 39.9526 4
74.2788 44.8158 4
72.1676 42.0855 3.97959
73.0099 49.554 4
71.2485 46.5979 3.97913
73.0099 25.446 0
71.1327 20.9142 0
68.6801 16.6661 0
67.8245 19.9262 0.019727
74.6792 32.6053 2
73.7222 27.7943 2
67.2508 14.6715 2
72.1455 23.1494 2
70.6132 26.2215 2
66.6369 17.9768 2
68.8851 21.9602 2
65.7931 21.0281 2
74.9197 35.0474 4
74.2794 30.1841 4
72.1843 32.9434 3.97984
71.2774 28.4314 3.97941
69.8146 24.0595 3.98042
68.344 26.9523 3.9688
66.7594 22.9345 3.96914
65.694 12.7746 4
65.3222 16.1045 3.97875
64.7099 19.1981 3.96986
63.8748 22.0416 3.96609
71.1327 54.0858 0
65.6939 62.2254 0
68.6801 58.3339 0
65.3111 59.0006 0.0207073
72.1455 51.8506 2
69.9759 56.25 2
68.8356 53.111 2
64.0165 64.0165 2
66.6106 57.1295 2
63.8859 60.7613 2
63.4965 57.7677 2
62.2254 65.694 4
58.8937 65.4138 3.98908
69.768 50.9888 3.97957
67.7827 55.1671 3.97978
66.6463 52.2078 3.96845
62.3348 62.4267 3.98318
64.6574 56.0292 3.96976
62.1987 59.3974 3.96919
61.8159 56.6733 3.96591
58.3339 68.6801 4
60.3285 67.2508 2
73.7221 47.2057 0
74.6784 42.3946 0
74.9197 39.9526 2
74.2794 44.8159 2
72.1671 42.0854 2
73.0099 49.554 2
71.2484 46.5977 2
75 37.5 4
72.4049 39.8022 3.98025
71.7819 44.3528 3.97955
69.8018 41.7895 3.96907
70.5743 48.8134 3.97921
68.9095 46.0141 3.9686
74.6792 32.6053 0
73.7222 27.7943 0
67.2507 14.6715 0
72.1454 23.1494 0
70.6133 26.2209 0.0201863
68.8847 21.958 0.0193404
66.6359 17.9725 0.0207534
65.7938 21.0271 0.0304724
74.9197 35.0474 2
74.2794 30.1841 2
72.1837 32.9438 2
71.2773 28.4319 2
65.694 12.7745 2
65.3238 16.1092 2
69.8147 24.0607 2
68.3439 26.953 2
64.7093 19.1989 2
66.7589 22.9355 2
63.8745 22.0421 2
72.4128 35.2242 3.9803
71.8033 30.6764 3.97985
69.8378 33.2689 3.96921
68.9634 29.0389 3.96884
67.6083 24.913 3.96889
66.1734 27.6399 3.96698
64.0165 10.9835 4
64.7401 23.8359 3.96646
63.8884 14.3288 3.98007
63.5091 17.4526 3.97046
62.8975 20.3279 3.9655
62.0421 22.9619 3.96693
60.6828 11.0991 3.98471
57.6109 11.4538 3.97632
72.1454 51.8506 0
69.9759 56.25 0
68.8354 53.113 0.0201497
64.0165 64.0165 0
63.8841 60.7649 0.0205508
66.6097 57.1334 0.0201786
63.4971 57.768 0.0293136
62.2255 65.694 2
58.8952 65.4128 2
69.768 50.9878 2
67.7832 55.1639 2
66.6458 52.207 2
62.3368 62.4239 2
64.6568 56.0285 2
62.1981 59.3977 2
61.8153 56.6732 2
60.6675 63.9762 3.98597
57.0249 66.7346 3.99054
57.5563 63.6875 3.97864
67.5044 50.1755 3.96819
65.6986 54.1716 3.96888
64.5176 51.3784 3.96574
60.77 60.9313 3.97254
62.8128 55.0615 3.96566
60.6489 58.1471 3.96435
60.3158 55.7714 3.96465
56.25 69.9759 4
58.3339 68.6801 2
60.3285 67.2507 0
58.9204 9.657 3.98694
62.2254 9.30607 4
73.0099 49.554 0
74.2788 44.8158 0
71.2485 46.5979 0.0208747
72.1676 42.0855 0.0204077
74.9194 39.9526 0
75 37.5 2
72.4049 39.8024 2
71.7818 44.3524 2
69.8012 41.7892 2
70.5741 48.8131 2
68.9094 46.0135 2
72.4883 37.5121 3.97985
70.0392 39.6574 3.96921
69.4279 43.9071 3.96889
67.5768 41.4951 3.96844
68.2629 48.1061 3.96829
66.682 45.4345 3.96759
74.9197 35.0474 0
74.2794 30.1841 0
72.1843 32.9434 0.0201638
71.2774 28.4314 0.0205902
65.694 12.7746 0
65.3222 16.1045 0.0212502
69.8146 24.0595 0.019576
68.344 26.9523 0.0312026
66.7594 22.9345 0.0308566
64.7099 19.1981 0.0301364
63.8748 22.0416 0.0339136
72.4127 35.2244 2
71.8033 30.6769 2
69.8372 33.2693 2
68.9634 29.0395 2
64.0165 10.9835 2
63.8906 14.3329 2
63.5085 17.4534 2
67.608 24.9139 2
66.1735 27.6403 2
62.8971 20.3283 2
64.7397 23.8364 2
62.0415 22.9624 2
60.6854 11.1018 2
57.6121 11.4524 2
70.0559 35.3923 3.96934
69.4647 31.1501 3.96897
67.6382 33.5935 3.96812
66.7505 29.6275 3.96734
65.5037 25.705 3.96665
64.0666 28.2719 3.97025
62.3404 12.6563 3.9829
62.7958 24.6555 3.9682
62.1948 15.7937 3.97058
61.8044 18.6953 3.966
61.1749 21.3614 3.96521
60.3271 23.7596 3.96931
59.2439 12.7875 3.97342
55.8733 10.2392 3.97865
56.4024 13.1332 3.97303
69.768 50.9888 0.02043
62.2254 65.694 0
58.8937 65.4138 0.0109165
67.7827 55.1671 0.0202185
66.6463 52.2078 0.0315538
62.3348 62.4267 0.0168151
62.1987 59.3974 0.0308069
64.6574 56.0292 0.0302367
61.8159 56.6733 0.0340915
60.6694 63.9745 2
57.0259 66.7341 2
57.5564 63.6893 2
67.5041 50.1747 2
65.6979 54.1707 2
64.5175 51.378 2
60.7697 60.9319 2
62.8121 55.0613 2
60.6486 58.1472 2
60.3156 55.7711 2
55.0709 67.9315 3.99159
59.2166 62.3596 3.97369
55.8038 64.9068 3.98272
56.3235 62.0768 3.97467
65.3053 49.4011 3.96619
63.6941 53.2861 3.9655
62.3713 50.6317 3.96727
59.3264 59.5442 3.96738
61.0521 54.2938 3.96587
59.2706 56.9932 3.9635
59.2185 55.1634 3.96539
48.1014 68.5771 3.987
50.9487 69.9312 3.99171
54.0858 71.1327 4
56.25 69.976 2
58.3339 68.6801 0
57.0578 8.33678 3.98805
60.3285 7.74928 4
58.9228 9.65865 2
62.2255 9.30602 2
70.5743 48.8134 0.0207883
71.7819 44.3528 0.0204518
68.9095 46.0141 0.0313953
69.8018 41.7895 0.0309308
72.4049 39.8022 0.0197487
75 37.5 0
72.4878 37.5123 2
70.0391 39.6573 2
69.4277 43.9067 2
67.5768 41.4949 2
68.2628 48.1054 2
66.6814 45.4341 2
70.1272 37.5218 3.96924
67.8172 39.5113 3.96853
67.1982 43.466 3.96797
65.4685 41.2018 3.97281
66.0394 47.4114 3.96695
64.5562 44.8328 3.9709
72.4128 35.2242 0.0197011
71.8033 30.6764 0.020148
69.8378 33.2689 0.0307939
68.9634 29.0389 0.0311576
64.0165 10.9835 0
63.8884 14.3288 0.0199324
63.5091 17.4526 0.0295442
67.6083 24.913 0.0311137
66.1734 27.6399 0.0330175
64.7401 23.8359 0.033535
62.8975 20.3279 0.0345016
62.0421 22.9619 0.033067
60.6828 11.0991 0.0152934
57.6109 11.4538 0.0236782
70.0558 35.3925 2
69.4646 31.1506 2
67.6383 33.5937 2
66.7506 29.6278 2
62.3428 12.6602 2
62.1943 15.7938 2
61.8036 18.6957 2
65.5036 25.7055 2
64.0653 28.2725 2
61.1739 21.362 2
62.7951 24.6561 2
60.3267 23.7604 2
59.2452 12.7869 2
56.4031 13.1312 2
55.8742 10.2381 2
67.8562 35.5489 3.96851
67.2456 31.6261 3.96778
65.6216 33.9341 3.97272
64.5813 30.206 3.9712
63.4684 26.4318 3.96928
62.119 28.8043 3.97445
60.7724 14.2317 3.97273
60.9332 25.3689 3.97143
60.602 17.143 3.9655
60.1879 19.8378 3.96338
59.5686 22.2926 3.96612
58.8414 24.3634 3.97197
54.0368 9.1402 3.98074
57.9058 14.3496 3.97315
54.7843 12.0236 3.97415
55.3062 14.6733 3.97126
67.5044 50.1755 0.0318094
57.0249 66.7346 0.00945604
60.6675 63.9762 0.0140286
57.5563 63.6875 0.0213612
65.6986 54.1716 0.0311219
64.5176 51.3784 0.0342557
60.77 60.9313 0.0274615
60.6489 58.1471 0.0356536
62.8128 55.0615 0.0343355
60.3158 55.7714 0.0353535
55.0716 67.9314 2
59.2169 62.3609 2
55.8036 64.9079 2
56.3228 62.0791 2
65.3052 49.4007 2
63.694 53.2859 2
62.3711 50.6313 2
59.3256 59.5454 2
61.0527 54.2936 2
59.2712 56.993 2
59.2195 55.1631 2
53.0429 68.9993 3.99161
53.9662 66.0112 3.98465
57.8758 60.8564 3.97331
54.682 63.2011 3.97729
55.2053 60.5956 3.97337
63.1105 48.641 3.96854
61.6914 52.5567 3.96652
60.146 49.9854 3.96919
58.0029 58.2437 3.96481
59.2761 53.9226 3.96698
58.0789 55.7861 3.96092
50.1082 67.8555 3.98666
47.4623 66.5771 3.98328
46.0552 69.1561 3.9872
48.1014 68.5778 2
48.8027 70.7224 3.99182
50.9491 69.9311 2
51.8506 72.1454 4
54.0858 71.1327 2
56.25 69.9759 0
55.1027 7.14114 3.98993
58.3339 6.31992 4
57.0597 8.33775 2
60.3286 7.74926 2
58.9204 9.657 0.0130643
62.2254 9.30607 0
68.2629 48.1061 0.0317147
69.4279 43.9071 0.0311095
66.682 45.4345 0.0324099
67.5768 41.4951 0.0315593
70.0392 39.6574 0.0307934
72.4883 37.5121 0.0201511
70.1267 37.5218 2
67.817 39.5112 2
67.1988 43.4657 2
65.4672 41.2015 2
66.0396 47.411 2
64.5548 44.8323 2
67.9162 37.5223 3.96855
65.7055 39.3661 3.97307
65.0869 43.0136 3.97228
63.6052 40.9163 3.97735
63.8701 46.6981 3.96958
62.648 44.1919 3.97512
70.0559 35.3923 0.0306614
69.4647 31.1501 0.0310305
67.6382 33.5935 0.0318794
66.7505 29.6275 0.0326622
62.3404 12.6563 0.0171029
62.1948 15.7937 0.0294213
61.8044 18.6953 0.0339987
65.5037 25.705 0.0333534
64.0666 28.2719 0.0297532
62.7958 24.6555 0.0318048
61.1749 21.3614 0.0347858
60.3271 23.7596 0.0306894
59.2439 12.7875 0.0265784
56.4024 13.1332 0.0269725
55.8733 10.2392 0.0213502
67.8558 35.5491 2
67.2461 31.6264 2
65.6202 33.9344 2
64.5801 30.2064 2
60.7725 14.2326 2
60.6016 17.143 2
60.1892 19.8379 2
63.4674 26.4323 2
62.1166 28.8051 2
59.57 22.2932 2
60.9326 25.3697 2
58.8405 24.3646 2
57.9061 14.3483 2
55.3066 14.6724 2
54.0375 9.13861 2
54.785 12.0213 2
65.7978 35.6702 3.973
65.1009 32.1651 3.9717
64.1594 34.2593 3.97727
62.4363 30.6593 3.97558
61.5245 27.1018 3.97269
60.6706 29.175 3.9773
59.3036 15.6846 3.96917
59.1677 25.8402 3.97481
59.103 18.3781 3.96404
58.6674 20.8885 3.96301
58.1509 23.1386 3.96687
57.8094 24.716 3.9739
52.1118 8.15634 3.98355
53.0564 11.027 3.97604
56.6673 15.7666 3.97164
53.8048 13.7039 3.97388
54.364 16.0297 3.97271
55.0709 67.9315 0.00840598
65.3053 49.4011 0.0338105
55.8038 64.9068 0.0172778
59.2166 62.3596 0.0263063
56.3235 62.0768 0.0253258
63.6941 53.2861 0.0345032
62.3713 50.6317 0.0327274
59.3264 59.5442 0.0326231
59.2706 56.9932 0.0364998
61.0521 54.2938 0.0341337
59.2185 55.1634 0.0346142
53.0434 68.9993 2
53.9661 66.012 2
57.8749 60.8579 2
54.6814 63.2019 2
55.2048 60.5975 2
63.1097 48.6405 2
61.6922 52.5565 2
60.1457 49.9847 2
58.0022 58.245 2
59.2783 53.9223 2
58.0769 55.7849 2
52.0695 66.9983 3.98629
52.9525 64.2137 3.98133
56.6385 59.4713 3.97235
[...]
POINT_DATA 3012
SCALARS Jp_lamdaP float 4
LOOKUP_TABLE default
0.999842 1 1 0.999842
1 1 1 1
0.999847 1 1 0.999847
0.999797 1 1 0.999797
0.999841 1 1 0.999841
0.999835 1 1 0.999835
0.999284 1 1 0.999284
1 1 1 1
1 1 1 1
1 1 1 1
0.999914 1 1 0.999914
0.99944 1 1 0.99944
0.999762 1 1 0.999762
0.99979 1 1 0.99979
0.999846 1 1 0.999846
0.999814 1 1 0.999814
0.99984 1 1 0.99984
0.99985 1 1 0.99985
0.999287 1 1 0.999287
1 1 1 1
0.999777 1 1 0.999777
0.999823 1 1 0.999823
0.999155 1 1 0.999155
0.999254 1 1 0.999254
0.999854 1 1 0.999854
0.999316 1 1 0.999316
0.999315 1.00091 1 0.998406
1 1 1 1
0.99991 1 1 0.99991
0.999923 1 1 0.999923
1 1 1 1
0.999449 1 1 0.999449
0.999814 1 1 0.999814
0.999837 1 1 0.999837
0.999375 1 1 0.999375
1 1 1 1
0.999464 1 1 0.999464
0.999539 1 1 0.999539
0.998443 1 1 0.998443
1 1 1 1
1 1 1 1
0.999893 1 1 0.999893
1 1 1 1
0.999782 1 1 0.999782
0.999083 1 1 0.999083
1 1 1 1
0.99928 1 1 0.99928
0.999828 1 1 0.999828
0.999856 1 1 0.999856
0.999841 1 1 0.999841
0.999293 1 1 0.999293
0.999877 1 1 0.999877
0.999793 1 1 0.999793
0.999864 1 1 0.999864
0.999837 1 1 0.999837
0.999155 1 1 0.999155
0.99932 1 1 0.99932
0.999257 1 1 0.999257
0.999576 1.00119 1 0.998391
1 1 1 1
0.999766 1 1 0.999766
0.999259 1 1 0.999259
0.999119 1 1 0.999119
0.999206 1 1 0.999206
1.00154 1.00344 1 0.998109
1.00008 1.00184 1 0.998241
0.999911 1 1 0.999911
0.99943 1 1 0.99943
0.998726 1.00022 1 0.99851
1.00687 1.00925 1 0.997646
1 1 1 1
1 1 1 1
1 1 1 1
0.999457 1 1 0.999457
1 1 1 1
1 1 1 1
0.999287 1 1 0.999287
0.999979 1 1 0.999979
0.999394 1 1 0.999394
0.999598 1 1 0.999598
0.99844 1 1 0.99844
1 1 1 1
0.999939 1 1 0.999939
0.999226 1 1 0.999226
0.999323 1 1 0.999323
1.00131 1.00329 1 0.99802
0.999751 1 1 0.999751
0.998762 1.00042 1 0.998341
0.998579 1 1 0.998579
0.998548 1.00068 1 0.997872
1 1 1 1
1 1 1 1
1 1 1 1
1 1 1 1
1 1 1 1
0.999888 1 1 0.999888
0.999166 1 1 0.999166
0.999898 1 1 0.999898
0.999231 1 1 0.999231
1 1 1 1
0.999072 1 1 0.999072
0.999254 1 1 0.999254
1.00121 1.00349 1 0.997733
0.999315 1 1 0.999315
1.00269 1.00488 1 0.997816
0.999781 1 1 0.999781
0.999808 1 1 0.999808
0.999873 1 1 0.999873
0.999848 1 1 0.999848
0.999156 1 1 0.999156
0.999261 1 1 0.999261
0.999326 1 1 0.999326
0.999825 1.00145 1 0.998376
1 1 1 1
0.999782 1 1 0.999782
0.999097 1 1 0.999097
0.999117 1 1 0.999117
0.999955 1 1 0.999955
0.999486 1 1 0.999486
0.999208 1 1 0.999208
1.00151 1.00345 1 0.998068
0.99888 1.00039 1 0.998492
1.00029 1.00202 1 0.998271
1.007 1.00937 1 0.99765
0.999094 1 1 0.999094
0.999097 1 1 0.999097
1.00084 1.00294 1 0.997904
1.00157 1.00358 1 0.997993
1.00123 1.00311 1 0.998124
1.01403 1.01662 1 0.99745
1 1 1 1
1.00907 1.01152 1 0.997578
0.999657 1 1 0.999657
0.998541 1 1 0.998541
1.00495 1.00726 1 0.997713
1.01748 1.02012 1 0.997409
0.999845 1 1 0.999845
0.999821 1 1.00071 0.999113
1 1 1 1
1 1 1 1
0.999293 1 1 0.999293
1 1 1 1
0.999593 1 1 0.999593
0.999399 1 1 0.999399
0.998436 1 1 0.998436
1 1 1 1
0.999955 1 1 0.999955
0.999288 1 1 0.999288
0.999382 1 1 0.999382
1.00085 1.00283 1 0.998022
0.999761 1 1 0.999761
0.998588 1.00024 1 0.998345
0.998578 1 1 0.998578
0.998466 1.00061 1 0.997856
0.999861 1 1 0.999861
0.999985 1 1 0.999985
0.999585 1 1.00027 0.99931
1.0024 1.0045 1 0.997909
0.999851 1.00167 1 0.998183
1.0103 1.01289 1 0.997441
0.998804 1 1 0.998804
1.00223 1.00447 1 0.997766
0.998918 1.00039 1.00057 0.997963
1.00245 1.00477 1 0.99769
1 1 1 1
1 1 1 1
1 1 1 1
0.999906 1 1 0.999906
1 1 1 1
1 1 1 1
1 1 1 1
0.999179 1 1 0.999179
0.999109 1 1 0.999109
1 1 1 1
1 1 1 1
0.999073 1 1 0.999073
0.999204 1 1 0.999204
1.00147 1.00374 1 0.997733
0.999207 1 1 0.999207
1.00274 1.00494 1 0.997815
0.999065 1 1 0.999065
1.00055 1.00287 1 0.997685
1.00202 1.00425 1 0.997784
1.0172 1.02 1 0.997258
1.00281 1.00497 1 0.997848
1.01769 1.02042 1 0.997323
1 1 1 1
0.999798 1 1 0.999798
0.998922 1 1 0.998922
0.999116 1 1 0.999116
1 1 1 1
0.999543 1 1 0.999543
0.999211 1 1 0.999211
1.00148 1.00346 1 0.998028
1.00051 1.00221 1 0.9983
0.999024 1.00055 1 0.998473
1.00711 1.00948 1 0.997655
0.999091 1 1 0.999091
0.999095 1 1 0.999095
1.0007 1.0029 1 0.997809
1.00159 1.00358 1 0.998021
1 1 1 1
0.999657 1 1 0.999657
0.99863 1.00004 1 0.998595
1.00119 1.00307 1 0.998123
1.01391 1.01654 1 0.997414
1.00483 1.00714 1 0.997701
1.00933 1.01174 1 0.99761
1.01704 1.01967 1 0.997415
0.999835 1 1 0.999835
0.999901 1 1.00079 0.999114
1.0002 1.0025 1 0.997706
1.0013 1.00335 1 0.997954
1.01516 1.01785 1 0.997355
1.01441 1.01712 1 0.99734
1.01139 1.01388 1 0.997544
1.02538 1.02811 1 0.997344
0.999763 1 1 0.999763
1.01934 1.02199 1 0.997404
0.998807 1 1.0001 0.998707
1.00063 1.0028 1 0.997838
1.01522 1.01782 1 0.997444
1.0203 1.02292 1 0.997436
0.999538 1 1.00058 0.998959
0.99942 1 1.00011 0.99931
1.00068 1 1.00212 0.998554
0.999246 1 1 0.999246
1 1 1 1
0.99997 1 1 0.99997
0.999352 1 1 0.999352
1.00039 1.00237 1 0.998024
0.999769 1 1 0.999769
0.998617 1 1.00004 0.998577
0.998436 1.00009 1 0.998348
0.998416 1.00058 1 0.997839
0.99988 1 1 0.99988
0.99999 1 1 0.99999
0.999679 1 1.00037 0.999313
1.0021 1.0042 1 0.997909
0.99944 1.00125 1 0.998188
1.0102 1.01279 1 0.997439
0.998828 1 1.00002 0.998808
1.00182 1.00405 1 0.997777
0.998895 1.00047 1.00047 0.997958
1.00261 1.00495 1 0.997675
0.999999 1 1 0.999999
0.999241 1 1.00019 0.999047
0.999801 1 1.00024 0.999565
0.999818 1 1.00107 0.998747
1.01377 1.01645 1 0.997359
1.00661 1.00902 1 0.997608
1.01975 1.02255 1 0.997258
0.998752 1.00007 1.00045 0.998225
1.00793 1.01037 1 0.997588
1.00419 1.00498 1.00158 0.997643
1.01106 1.01355 1 0.997543
0.999846 1 1 0.999846
1 1 1 1
1 1 1 1
1 1 1 1
1 1 1 1
0.999951 1 1 0.999951
1 1 1 1
0.999894 1 1 0.999894
1 1 1 1
0.999208 1 1 0.999208
0.999148 1 1 0.999148
1.00288 1.00508 1 0.997815
1.0017 1.00398 1 0.997733
0.999075 1 1 0.999075
1 1 1 1
0.999064 1 1 0.999064
1.00071 1.00303 1 0.997685
1.00225 1.00448 1 0.997784
1.01693 1.01973 1 0.997257
1.00277 1.00493 1 0.997847
1.01766 1.0204 1 0.997321
1.00014 1.00247 1 0.997678
1.01626 1.0191 1 0.997214
1.01778 1.02054 1 0.997298
1.03082 1.0336 1 0.997305
1.01674 1.01946 1 0.997334
1.02954 1.03231 1 0.997312
0.999088 1 1 0.999088
0.999093 1 1 0.999093
1.00057 1.00286 1 0.997714
1.00162 1.00358 1 0.99805
1 1 1 1
0.999657 1 1 0.999657
0.998734 1.00009 1 0.998648
1.00115 1.00303 1 0.998122
1.0138 1.01647 1 0.997377
1.00956 1.01194 1 0.997641
1.00468 1.00701 1 0.99769
1.01669 1.01932 1 0.997422
0.999825 1 1 0.999825
0.999909 1 1.00079 0.999116
1.00016 1.00249 1 0.997681
1.00126 1.00331 1 0.997951
1.01537 1.01806 1 0.997354
1.01455 1.01722 1 0.997376
0.999753 1 1 0.999753
0.998731 1 1.00003 0.998704
1.00128 1.00341 1 0.997872
1.01162 1.01411 1 0.99754
1.02566 1.02838 1 0.997357
1.01455 1.01718 1 0.997411
1.01921 1.02186 1 0.997408
1.02068 1.0233 1 0.997436
0.999363 1 1.0004 0.998961
1.00061 1 1.00206 0.998556
0.99968 1 1.00037 0.999307
1.01527 1.01802 1 0.997301
1.01553 1.01819 1 0.997381
1.02929 1.03208 1 0.99729
1.02731 1.03008 1 0.997306
1.02136 1.02403 1 0.997396
1.0267 1.02925 1 0.997518
0.9989 1 1.00005 0.998853
1.02233 1.02491 1 0.997481
0.998681 1.00053 1 0.998153
1.00669 1.00928 1 0.997434
1.01791 1.02068 1 0.997289
1.01901 1.02146 1 0.997597
0.999481 1 1 0.999481
0.998735 1 1.00022 0.998519
1.00122 1 1.00258 0.998649
0.999658 1 1.00128 0.998377
1.00183 1.00393 1 0.997908
0.999995 1 1 0.999995
0.9999 1 1 0.9999
0.999663 1 1.00035 0.999315
0.998998 1.00081 1 0.998192
1.01008 1.01268 1 0.997436
0.998828 1 1.00002 0.998811
0.998784 1.0005 1.00033 0.997954
1.00138 1.0036 1 0.997787
1.00258 1.00493 1 0.99766
0.999999 1 1 0.999999
0.999265 1 1.00022 0.999047
0.999674 1 1.0001 0.999572
1.00009 1 1.00135 0.998742
1.01361 1.0163 1 0.997355
1.00591 1.00832 1 0.997609
1.0197 1.0225 1 0.997256
0.998703 1.00002 1.00045 0.998231
1.00807 1.0105 1 0.997601
1.00396 1.00461 1.00173 0.997632
1.01117 1.0136 1 0.99761
1 1 1 1
0.999722 1 1 0.999722
0.998934 1 1.00042 0.998515
0.9998 1 1.00081 0.998994
0.999817 1 1.00135 0.998464
1.02308 1.02591 1 0.99724
1.01406 1.0167 1 0.997403
1.0189 1.02168 1 0.997285
1.00158 1.00173 1.00199 0.997858
1.011 1.01351 1 0.997522
1.00764 1.00944 1.00086 0.99736
0.999827 1 1 0.999827
0.999441 1 1 0.999441
0.999859 1 1 0.999859
0.999848 1 1 0.999848
1 1 1 1
1 1 1 1
1 1 1 1
1 1 1 1
1 1 1 1
0.999983 1 1 0.999983
1 1 1 1
0.99994 1 1 0.99994
1 1 1 1
0.999883 1 1 0.999883
1 1 1 1
1.00269 1.00485 1 0.997845
1.00243 1.00466 1 0.997783
1.01748 1.02021 1 0.99732
1.01665 1.01945 1 0.997255
1.00092 1.00324 1 0.997685
0.999063 1 1 0.999063
1.00026 1.00259 1 0.997677
1.01619 1.01903 1 0.997214
1.01742 1.02018 1 0.997297
1.03106 1.03383 1 0.997319
1.01632 1.01904 1 0.997332
1.02905 1.03183 1 0.997311
1.01574 1.01859 1 0.997204
1.03017 1.03296 0.999996 0.997303
1.03095 1.03373 1 0.997315
1.03398 1.03689 0.999712 0.997483
1.02571 1.02851 1 0.997282
1.03006 1.03259 1 0.997554
1.00015 1.0025 1 0.997655
1.00123 1.00329 1 0.997948
1.01558 1.01828 1 0.997353
1.01469 1.01732 1 0.997411
0.999742 1 1 0.999742
0.998702 1 1 0.998702
1.00191 1.00401 1 0.997907
1.01188 1.01438 1 0.997536
1.02597 1.02867 1 0.997371
1.01909 1.02174 1 0.997411
1.01378 1.01645 1 0.997378
1.02102 1.02365 1 0.997435
0.999246 1 1.00028 0.998964
1.00055 1 1.002 0.998558
0.999906 1 1.0006 0.999304
1.0154 1.01819 1 0.997266
1.01564 1.01831 1 0.997379
1.02888 1.03166 1 0.997308
1.02755 1.03033 1 0.997306
0.998902 1 1.00005 0.998852
0.99925 1.00111 1 0.998146
1.00604 1.00854 1.00003 0.997485
1.02153 1.0242 1 0.997392
1.02628 1.0288 1 0.997556
1.01796 1.02076 1 0.997257
1.02234 1.02492 1 0.997484
1.01869 1.02112 1 0.997622
0.998854 1 1.00033 0.998522
0.999645 1 1.00129 0.998359
0.999476 1 1 0.999476
1.00113 1 1.00245 0.998676
1.02924 1.03206 1 0.997263
1.02952 1.03228 1 0.997321
1.03101 1.03383 0.999867 0.997404
1.02864 1.03147 0.999715 0.997547
1.02398 1.0265 1 0.997541
1.02519 1.02754 1 0.997713
0.998401 1 1 0.998401
1.01931 1.02161 1 0.997746
0.99948 1.00171 1 0.997772
1.01032 1.01298 1.00018 0.997197
1.01927 1.0221 1 0.997228
1.01801 1.0204 1 0.99766
0.9996 1 1 0.9996
0.99944 1 1.0006 0.998842
0.998333 1 1 0.998333
1.0013 1 1.00288 0.998425
0.999054 1 1.00072 0.998333
1 1 1 1
1.0134 1.01609 1 0.997352
0.99958 1 1 0.99958
0.999351 1 1.0003 0.999048
1.00042 1 1.00168 0.998737
1.00526 1.00767 1 0.997609
1.01971 1.02252 1 0.997254
0.998741 1 1.00051 0.998236
1.00407 1.00453 1.00193 0.997621
1.00831 1.01072 1 0.997614
1.0115 1.01385 1 0.997676
1 1 1 1
0.999729 1 1 0.999729
0.99894 1 1.00042 0.998517
0.999961 1 1.00097 0.998994
1.00017 1 1.00173 0.998443
1.02332 1.02616 1 0.997235
1.01439 1.01703 1 0.997402
1.01882 1.0216 1 0.997275
1.00117 1.00118 1.00213 0.997863
1.01351 1.01602 1 0.997531
1.00694 1.00862 1.00096 0.997379
0.999793 1 1 0.999793
0.999228 1 1.00001 0.999216
0.99868 1 1.00048 0.998203
1.00103 1 1.00237 0.998654
0.999704 1 1.00137 0.998333
1.02285 1.02559 1 0.997332
1.01457 1.01724 1 0.997379
1.01682 1.01941 1 0.997456
1.00164 1.00023 1.00379 0.997635
1.00687 1.00965 1 0.997246
0.99983 1 1 0.99983
0.999374 1 1 0.999374
0.99942 1 1 0.99942
0.999205 1 1 0.999205
0.99945 1 1 0.99945
0.999863 1 1 0.999863
0.99986 1 1 0.99986
1 1 1 1
0.99985 1 1 0.99985
1 1 1 1
1 1 1 1
1 1 1 1
1 1 1 1
1 1 1 1
0.999997 1 1 0.999997
0.999974 1 1 0.999974
1 1 1 1
1 1 1 1
0.999929 1 1 0.999929
1 1 1 1
1.01599 1.01871 1 0.997329
1.01723 1.01999 1 0.997296
1.02869 1.03146 1 0.997309
1.03138 1.03415 0.999993 0.997332
1.01606 1.0189 1 0.997214
1.00032 1.00265 1 0.997677
1.01558 1.01843 1 0.997205
1.03016 1.03296 0.999989 0.997296
1.03095 1.03372 1 0.997315
1.03324 1.03635 0.999486 0.997512
1.02625 1.02905 1 0.997276
1.03008 1.03272 0.999876 0.997573
1.0293 1.03212 1 0.99727
1.03211 1.03569 0.999099 0.997448
1.03244 1.03521 0.999755 0.997572
1.03184 1.03605 0.998301 0.997636
1.02699 1.0296 1 0.997464
1.02999 1.03279 0.99953 0.997757
1.01548 1.0183 1 0.997231
1.01574 1.01841 1 0.997377
1.02844 1.0312 1 0.997325
1.02777 1.03055 1 0.997307
0.998903 1 1.00005 0.99885
0.99987 1.00173 1 0.99814
1.00557 1.00787 1.00018 0.997536
1.0217 1.02438 1 0.997388
1.02579 1.02827 1 0.997593
1.02236 1.02494 1 0.997488
1.01807 1.0209 1 0.997224
1.01826 1.02066 1 0.997648
0.99898 1 1.00046 0.998524
0.999604 1 1.00127 0.99834
0.999471 1 1 0.999471
1.00081 1 1.00211 0.998703
1.02908 1.0319 1 0.997264
1.02902 1.03181 1 0.997304
1.03087 1.03368 0.999854 0.997429
1.02861 1.03128 0.999876 0.99753
0.998395 1 1 0.998395
0.99973 1.00189 1.00003 0.997818
1.0105 1.01296 1.00039 0.997189
1.02364 1.0262 1 0.997509
1.02493 1.02725 0.999971 0.997766
1.01838 1.02122 1 0.997215
1.01972 1.02202 1 0.997748
1.01921 1.02155 1 0.997705
0.99833 1 1 0.99833
0.998705 1 1.00037 0.998338
1.00197 1 1.00356 0.998418
0.999565 1 1 0.999565
0.999429 1 1.00056 0.998867
1.03111 1.03499 0.998814 0.997432
1.03163 1.03468 0.99957 0.99748
1.02613 1.02984 0.99865 0.997749
1.02218 1.0246 0.999856 0.997786
0.998277 1.00011 1 0.998163
1.02282 1.02496 1 0.997908
0.999682 1.00186 1.00029 0.997535
1.01017 1.01273 1.00051 0.996966
1.01722 1.02008 1 0.9972
0.999645 1 1 0.999645
0.999147 1 1.00006 0.999085
1.0002 1 1.00158 0.998616
0.998289 1 1 0.998289
1.00223 1 1.00399 0.998239
0.998269 1 1 0.998269
1 1 1 1
0.999736 1 1 0.999736
1.02359 1.02643 1 0.997229
1.00017 1 1.00118 0.998994
0.998861 1 1.00034 0.998519
1.00068 1 1.00226 0.998421
1.01455 1.01719 1 0.997401
1.01857 1.02136 1 0.997265
1.00068 1.00053 1.00229 0.997868
1.00573 1.00757 1.00077 0.997398
1.01582 1.01833 1 0.997541
0.999798 1 1 0.999798
0.999244 1 1.00002 0.99922
0.998621 1 1.00041 0.998208
1.00151 1 1.00287 0.998651
0.999808 1 1.00148 0.998327
1.02278 1.02552 1 0.997326
1.01503 1.0177 1 0.997369
1.01662 1.01919 1 0.997481
1.0014 1.00056 1.00324 0.997603
1.00575 1.0085 1.00006 0.997217
0.999349 1 1 0.999349
1.00027 1 1.00144 0.998828
1.00025 1.00021 1.002 0.99805
1.00159 1 1.0032 0.998389
0.999215 1 1.001 0.998222
1.02328 1.02559 1 0.997741
1.01275 1.01551 1 0.997289
1.01346 1.01599 1 0.997506
1.00357 1.00181 1.00433 0.997436
1.00097 1.00396 1 0.997023
0.999833 1 1 0.999833
0.999391 1 1 0.999391
0.999118 1 1 0.999118
0.999398 1 1 0.999398
0.99945 1 1 0.99945
0.999174 1 1 0.999174
0.99903 1 1 0.99903
0.999144 1 1 0.999144
0.999454 1 1 0.999454
0.99986 1 1 0.99986
0.999863 1 1 0.999863
1 1 1 1
0.999861 1 1 0.999861
1 1 1 1
1 1 1 1
1 1 1 1
1 1 1 1
1 1 1 1
1 1 1 1
0.999994 1 1 0.999994
1 1 1 1
0.999966 1 1 0.999966
1 1 1 1
1 1 1 1
1.02673 1.02954 1 0.997271
1.03078 1.03355 1 0.997314
1.03008 1.03284 0.999738 0.997592
1.03243 1.03575 0.999247 0.997541
1.03018 1.03298 1 0.99729
1.01551 1.01835 1 0.997206
1.02959 1.03242 0.999999 0.997253
1.03234 1.03572 0.999295 0.99744
1.03227 1.03495 0.999863 0.997551
1.03127 1.03577 0.997999 0.99765
1.02635 1.02896 1 0.997464
1.02911 1.03202 0.99938 0.997798
1.03171 1.03498 0.999429 0.997416
1.03177 1.03751 0.996835 0.997628
1.03091 1.03551 0.997798 0.997753
1.02717 1.02994 0.999466 0.997849
1.02895 1.03178 1 0.997264
1.02855 1.03134 1 0.997287
1.03075 1.03354 0.999845 0.997453
1.02862 1.03119 1 0.997513
0.998389 1 1 0.998389
0.99968 1.00182 1 0.997864
1.01062 1.01289 1.00058 0.997181
1.02324 1.02583 1 0.997476
1.02472 1.02701 0.99995 0.997819
1.02023 1.02253 1 0.99775
1.01762 1.02047 1 0.997202
1.02043 1.02273 1 0.99775
0.998328 1 1 0.998328
0.998342 1 1 0.998342
1.00326 1 1.00486 0.998412
0.999531 1 1 0.999531
0.9995 1 1.00061 0.998893
1.03164 1.03514 0.99918 0.997435
1.03177 1.03483 0.999559 0.997481
1.02606 1.02945 0.998965 0.997738
0.998606 1.00045 1 0.998156
1.00088 1.00305 1.00026 0.997579
1.0099 1.01221 1.00076 0.996956
1.02284 1.02526 0.999864 0.997775
1.01712 1.0199 1 0.997277
1.02113 1.02338 0.999914 0.997886
0.999659 1 1 0.999659
0.9984 1.00012 1 0.99828
0.998348 1 1 0.998348
1.0021 1 1.00389 0.998224
1.00015 1 1.00152 0.998628
0.999108 1 1.00005 0.999058
1.03136 1.03684 0.997197 0.997517
1.02937 1.03606 0.995873 0.997662
1.02245 1.02805 0.99671 0.997836
1.02673 1.03012 0.998733 0.99798
0.998941 1.00094 1 0.998006
1.01784 1.02031 1 0.997575
1.00245 1.0037 1.00165 0.997111
1.00616 1.00832 1.00104 0.996818
0.999766 1 1 0.999766
0.999245 1 1 0.999245
0.99889 1 1.0001 0.998792
1.00238 1 1.00407 0.998322
0.998183 1 1 0.998183
1.00071 1 1.0026 0.998111
0.999802 1 1 0.999802
0.999223 1 1 0.999223
1.02288 1.02563 1 0.99732
1.00162 1 1.00298 0.998647
0.998482 1 1.00027 0.998212
0.9998 1 1.00148 0.998322
1.01577 1.01846 1 0.997359
1.01665 1.01919 1 0.997506
1.00132 1.00102 1.00273 0.99757
1.0047 1.00727 1.00027 0.997188
0.999352 1 1 0.999352
0.999989 1 1.00116 0.998835
1.00016 1.00011 1.00198 0.998065
1.00178 1 1.0034 0.998394
0.998767 1 1.00048 0.998292
1.02368 1.026 0.999967 0.997776
1.0121 1.01485 1 0.997294
1.01488 1.01734 1 0.99758
1.00298 1.001 1.00458 0.997401
1.00163 1.00464 1.00003 0.996975
0.999043 1 1 0.999043
1.00102 1 1.00253 0.998498
1.00206 1.00039 1.00378 0.9979
0.999653 1 1.00155 0.998102
1.02627 1.03462 0.99393 0.997993
1.01823 1.02055 0.999872 0.99785
1.00711 1.01005 1 0.997088
1.00339 1.0021 1.00426 0.997041
0.999409 1 1 0.999409
0.999131 1 1 0.999131
0.998992 1 1 0.998992
0.99945 1 1 0.99945
0.999143 1 1 0.999143
0.999453 1 1 0.999453
0.999014 1 1 0.999014
0.999157 1 1 0.999157
0.998925 1 1 0.998925
0.998975 1 1 0.998975
0.999126 1 1 0.999126
0.999441 1 1 0.999441
0.999852 1 1 0.999852
0.999859 1 1 0.999859
1 1 1 1
0.999863 1 1 0.999863
1 1 1 1
1 1 1 1
1 1 1 1
1 1 1 1
1 1 1 1
1 1 1 1
1 1 1 1
1 1 1 1
0.999991 1 1 0.999991
1 1 1 1
1 1 1 1
1.02561 1.02822 1 0.997464
1.03219 1.03476 0.999985 0.997531
1.02826 1.03127 0.999246 0.997839
1.03072 1.0355 0.997717 0.997664
1.03254 1.03573 0.999487 0.997432
1.02986 1.03272 1 0.997236
1.03132 1.03492 0.999108 0.997419
1.03122 1.03677 0.997018 0.997619
1.03048 1.03515 0.997725 0.997752
1.02877 1.03146 0.999544 0.997853
1.03137 1.03719 0.99681 0.997569
1.03147 1.03993 0.994055 0.997796
1.0318 1.03757 0.99654 0.99789
1.03215 1.03528 0.999539 0.997437
1.0319 1.03495 0.999575 0.997482
1.02597 1.02899 0.999334 0.997727
0.999084 1.00094 1 0.998149
1.00211 1.00432 1.00018 0.997622
1.00932 1.01156 1.00085 0.996945
1.02345 1.02589 0.999861 0.997764
1.0195 1.02183 0.999848 0.997863
1.01722 1.01992 1 0.997354
0.998586 1.00031 1 0.998272
0.998426 1 1 0.998426
1.00188 1 1.00368 0.998209
0.999673 1 1 0.999673
0.999609 1 1.00097 0.99864
0.999055 1 1.00002 0.999031
1.03214 1.03715 0.99764 0.997524
1.02966 1.03626 0.995959 0.997671
1.02275 1.0278 0.997253 0.997828
0.999346 1.00135 1 0.997995
1.00198 1.00339 1.0014 0.997197
1.00554 1.0078 1.0009 0.996861
1.02668 1.02979 0.998994 0.997988
1.01829 1.02086 0.999924 0.997562
0.999807 1 1 0.999807
0.999244 1 1 0.999244
0.998234 1.00002 1 0.998215
1.00173 1 1.00354 0.998193
1.00231 1 1.00397 0.998344
0.998847 1 1.00008 0.998769
1.03067 1.03873 0.994515 0.997714
1.02207 1.03321 0.991398 0.997801
1.0227 1.02927 0.995582 0.998026
1.02014 1.02413 0.998087 0.998013
0.999968 1.00135 1.00088 0.997742
1.00529 1.00693 1.0014 0.996971
1.00308 1.00354 1.00264 0.996915
0.999902 1 1 0.999902
0.999531 1 1 0.999531
0.999331 1 1 0.999331
0.998893 1 1 0.998893
0.999735 1 1.00122 0.998514
1.0024 1 1.00419 0.998216
0.998247 1 1 0.998247
1.01526 1 1.01694 0.998348
0.999354 1 1 0.999354
0.999923 1 1.00108 0.998842
1.02399 1.0263 0.999933 0.99781
1.00231 1 1.00392 0.998399
1.00023 1 1.00215 0.998081
0.998398 1 1.00004 0.998362
1.01118 1.01392 1 0.9973
1.0161 1.01849 1 0.997654
1.0026 1.00042 1.00482 0.997367
1.00243 1.00552 1 0.996926
0.999024 1 1 0.999024
1.00122 1 1.00272 0.998512
1.00231 1.00024 1.00415 0.997925
0.999491 1 1.00136 0.998132
1.02766 1.03553 0.994379 0.998007
1.01804 1.02032 0.999949 0.997812
1.00815 1.01106 1 0.997128
1.00352 1.00276 1.00377 0.996998
0.999172 1 1.00034 0.998835
1.02494 1.03738 0.98998 0.998006
1.00109 1 1.00284 0.998249
1.00119 1.00087 1.00268 0.997655
1.02517 1.02896 0.998222 0.998095
1.00839 1.01121 1 0.997219
1.00478 1.0047 1.00323 0.996853
0.999144 1 1 0.999144
0.998988 1 1 0.998988
0.998895 1 1 0.998895
0.999453 1 1 0.999453
0.99917 1 1 0.99917
0.998998 1 1 0.998998
0.999439 1 1 0.999439
0.999129 1 1 0.999129
0.998912 1 1 0.998912
0.998997 1 1 0.998997