# vtk DataFile Version 2.0
Wound Healing Simulation
ASCII
DATASET UNSTRUCTURED_GRID
POINTS 3012 float
69.9759 18.75 4
67.2507 60.3285 4
69.976 18.75 2
73.0099 25.446 4
71.1327 20.9142 4
68.6801 16.6661 4
67.8229 19.9266 3.97622
67.2507 60.3286 2
71.1327 54.0858 4
68.6801 58.3339 4
65.6939 62.2254 4
65.3097 58.9998 3.97553
74.6784 42.3946 4
73.7221 47.2057 4
69.9759 18.75 0
73.0099 25.446 2
68.6801 16.6661 2
71.1327 20.9142 2
67.8234 19.9301 2
74.6792 32.6053 4
73.7222 27.7943 4
72.1454 23.1494 4
70.6121 26.2215 3.9762
68.8832 21.9583 3.9767
67.2507 14.6715 4
66.6343 17.9731 3.97509
65.7897 21.0288 3.965
67.2507 60.3285 0
71.1327 54.0858 2
68.6801 58.3339 2
65.694 62.2255 2
65.311 58.995 2
72.1454 51.8506 4
69.9759 56.25 4
68.8337 53.1132 3.97596
64.0165 64.0165 4
66.6081 57.1328 3.97593
63.8828 60.7638 3.9754
63.4939 57.7647 3.96654
60.3285 67.2507 4
74.6792 42.3947 2
73.7222 47.2057 2
74.9194 39.9526 4
74.2788 44.8158 4
72.1667 42.0858 3.97723
73.0099 49.554 4
71.2473 46.598 3.97586
73.0099 25.446 0
71.1327 20.9142 0
68.6801 16.6661 0
67.8229 19.9266 0.023777
74.6792 32.6053 2
73.7222 27.7943 2
67.2508 14.6715 2
72.1455 23.1494 2
70.6118 26.2221 2
66.6352 17.9777 2
68.8834 21.9605 2
65.7889 21.03 2
74.9197 35.0474 4
74.2794 30.1841 4
72.1834 32.9442 3.97742
71.2764 28.4322 3.97621
69.8133 24.0599 3.97662
68.341 26.9542 3.96524
66.7556 22.9361 3.96481
65.694 12.7746 4
65.3205 16.1055 3.97417
64.7059 19.2003 3.96539
63.8169 22.0628 3.96447
71.1327 54.0858 0
65.6939 62.2254 0
68.6801 58.3339 0
65.3097 58.9998 0.0244672
72.1455 51.8506 2
69.9759 56.25 2
68.8338 53.1109 2
64.0165 64.0165 2
66.6089 57.1284 2
63.8846 60.7587 2
63.4925 57.7643 2
62.2254 65.694 4
58.8922 65.413 3.98472
69.7664 50.9891 3.97571
67.781 55.167 3.97616
66.6421 52.2073 3.96479
62.3329 62.4244 3.97791
64.6535 56.0272 3.96599
62.1967 59.3924 3.96671
61.7869 56.6587 3.9624
58.3339 68.6801 4
60.3285 67.2508 2
73.7221 47.2057 0
74.6784 42.3946 0
74.9197 39.9526 2
74.2794 44.8159 2
72.166 42.0854 2
73.0099 49.554 2
71.247 46.5975 2
75 37.5 4
72.4041 39.8026 3.97811
71.7808 44.3529 3.97684
69.7995 41.79 3.96727
70.5728 48.8135 3.97553
68.9063 46.0141 3.96584
74.6792 32.6053 0
73.7222 27.7943 0
67.2507 14.6715 0
72.1454 23.1494 0
70.6121 26.2215 0.023796
68.8832 21.9583 0.0233039
66.6343 17.9731 0.0249149
65.7897 21.0288 0.0349974
74.9197 35.0474 2
74.2794 30.1841 2
72.1827 32.9445 2
71.276 28.4326 2
65.694 12.7745 2
65.322 16.1107 2
69.8132 24.0611 2
68.3406 26.9551 2
64.7049 19.2014 2
66.755 22.9373 2
63.8169 22.0633 2
72.412 35.2248 3.97814
71.8024 30.6771 3.97711
69.8356 33.2708 3.96714
68.9608 29.041 3.96577
67.605 24.9147 3.96499
66.1102 27.6564 3.96794
64.0165 10.9835 4
64.6784 23.8561 3.96572
63.8865 14.3303 3.97486
63.5053 17.4562 3.9659
62.8425 20.35 3.96286
61.9422 22.9996 3.96791
60.6815 11.1013 3.97946
57.6068 11.4694 3.97039
72.1454 51.8506 0
69.9759 56.25 0
68.8337 53.1132 0.0240388
64.0165 64.0165 0
63.8828 60.7638 0.0246001
66.6081 57.1328 0.0240665
63.4939 57.7647 0.0334633
62.2255 65.694 2
58.8946 65.41 2
69.7662 50.9878 2
67.7815 55.1636 2
66.6414 52.2063 2
62.3354 62.4201 2
64.6523 56.0265 2
62.1947 59.3923 2
61.7878 56.659 2
60.6663 63.974 3.98081
57.0233 66.734 3.98753
57.5539 63.6802 3.97173
67.5003 50.1752 3.96473
65.6946 54.1706 3.96534
64.4473 51.3591 3.96568
60.7677 60.9191 3.96862
62.7644 55.0443 3.96377
60.6365 58.1353 3.96122
60.2451 55.7428 3.96451
56.25 69.9759 4
58.3339 68.6801 2
60.3285 67.2507 0
58.9188 9.65885 3.981
62.2254 9.30607 4
73.0099 49.554 0
74.2788 44.8158 0
71.2473 46.598 0.0241398
72.1667 42.0858 0.0227659
74.9194 39.9526 0
75 37.5 2
72.4039 39.8024 2
71.7806 44.3522 2
69.7987 41.7896 2
70.5725 48.8129 2
68.9061 46.0133 2
72.4875 37.5126 3.97772
70.037 39.6583 3.96766
69.4252 43.9073 3.96661
67.513 41.4904 3.97096
68.2594 48.106 3.96516
66.6112 45.4227 3.96952
74.9197 35.0474 0
74.2794 30.1841 0
72.1834 32.9442 0.0225837
71.2764 28.4322 0.0237876
65.694 12.7746 0
65.3205 16.1055 0.0258306
69.8133 24.0599 0.0233815
68.341 26.9542 0.03476
66.7556 22.9361 0.0351853
64.7059 19.2003 0.0346126
63.8169 22.0628 0.0355277
72.4118 35.2249 2
71.8022 30.6777 2
69.8348 33.2714 2
68.9605 29.0418 2
64.0165 10.9835 2
63.8886 14.3353 2
63.5039 17.4573 2
67.6045 24.9157 2
66.1098 27.657 2
62.8427 20.3503 2
64.6779 23.8568 2
61.9414 23.0005 2
60.6839 11.1053 2
57.6078 11.4624 2
70.0538 35.3939 3.96759
69.4623 31.1522 3.96642
67.5798 33.6012 3.97031
66.6872 29.6414 3.96862
65.4402 25.7236 3.96667
63.9553 28.3002 3.97401
62.3384 12.6589 3.97737
62.6902 24.691 3.9702
62.1916 15.8 3.96719
61.7642 18.7157 3.96168
61.0781 21.4015 3.96526
60.1966 23.8112 3.97181
59.2404 12.8083 3.96826
55.8698 10.2491 3.97338
56.3951 13.1661 3.96859
69.7664 50.9891 0.02429
62.2254 65.694 0
58.8922 65.413 0.01528
67.781 55.167 0.0238366
66.6421 52.2073 0.0352128
62.3329 62.4244 0.0220922
62.1967 59.3924 0.0332921
64.6535 56.0272 0.0340072
61.7869 56.6587 0.0376032
60.6686 63.971 2
57.0254 66.7326 2
57.5547 63.6822 2
67.5 50.1743 2
65.6937 54.1697 2
64.4473 51.3586 2
60.7668 60.9207 2
62.7648 55.0443 2
60.6398 58.1365 2
60.2446 55.7426 2
55.0692 67.9312 3.98897
59.2135 62.34 3.96968
55.8016 64.902 3.97706
56.3175 62.0497 3.97032
65.2314 49.3833 3.96694
63.6292 53.2665 3.96456
62.2483 50.5982 3.96911
59.3201 59.53 3.96408
60.9525 54.261 3.96664
59.2186 56.9662 3.96229
59.1174 55.1256 3.96729
48.1002 68.5753 3.9851
50.947 69.9313 3.99038
54.0858 71.1327 4
56.25 69.976 2
58.3339 68.6801 0
57.0559 8.33827 3.98274
60.3285 7.74928 4
58.9214 9.66296 2
62.2255 9.30602 2
70.5728 48.8135 0.0244692
71.7808 44.3529 0.0231642
68.9063 46.0141 0.0341642
69.7995 41.79 0.0327265
72.4041 39.8026 0.0218877
75 37.5 0
72.4868 37.5125 2
70.0368 39.6581 2
69.4249 43.9067 2
67.5117 41.4902 2
68.259 48.1051 2
66.6093 45.4221 2
70.1251 37.523 3.96767
67.7577 39.5099 3.97147
67.1303 43.4578 3.97012
65.355 41.1914 3.97705
65.9658 47.3963 3.96837
64.4305 44.8115 3.97493
72.412 35.2248 0.0218578
71.8024 30.6771 0.022893
69.8356 33.2708 0.032862
68.9608 29.041 0.0342306
64.0165 10.9835 0
63.8865 14.3303 0.0251398
63.5053 17.4562 0.034097
67.605 24.9147 0.0350137
66.1102 27.6564 0.0320595
64.6784 23.8561 0.0342752
62.8425 20.35 0.0371431
61.9422 22.9996 0.0320923
60.6815 11.1013 0.0205422
57.6068 11.4694 0.0296122
70.0536 35.3942 2
69.462 31.1528 2
67.5787 33.6015 2
66.6861 29.642 2
62.3409 12.6634 2
62.1902 15.8006 2
61.7646 18.7155 2
65.4398 25.7243 2
63.9532 28.3012 2
61.0769 21.4023 2
62.6889 24.692 2
60.1958 23.8123 2
59.241 12.8082 2
56.3963 13.1636 2
55.8716 10.2481 2
67.7973 35.5536 3.97106
67.1872 31.6368 3.96949
65.5115 33.9468 3.97713
64.4705 30.2299 3.97553
63.3581 26.4642 3.97223
61.9689 28.8477 3.97613
60.769 14.2456 3.96816
60.7942 25.4181 3.97444
60.5843 17.1597 3.96147
60.0951 19.8799 3.96219
59.4422 22.3475 3.96766
58.6849 24.4286 3.97433
54.0346 9.14618 3.97452
57.8983 14.3745 3.96705
54.7775 12.0572 3.96988
55.2954 14.7106 3.96732
67.5003 50.1752 0.0352737
57.0233 66.734 0.0124697
60.6663 63.974 0.0191884
57.5539 63.6802 0.0282728
65.6946 54.1706 0.0346631
64.4473 51.3591 0.0343197
60.7677 60.9191 0.0313781
60.6365 58.1353 0.038779
62.7644 55.0443 0.0362323
60.2451 55.7428 0.0354873
55.0709 67.9301 2
59.2138 62.3411 2
55.802 64.9021 2
56.3162 62.0503 2
65.231 49.3828 2
63.6293 53.2663 2
62.248 50.5976 2
59.3198 59.5313 2
60.9529 54.2608 2
59.223 56.967 2
59.1202 55.1256 2
53.0413 68.9993 3.99013
53.9643 66.0063 3.97968
57.8689 60.8356 3.96886
54.6767 63.1865 3.9719
55.1945 60.5671 3.96866
62.9852 48.6105 3.97111
61.5793 52.5228 3.9678
59.9832 49.9392 3.97148
57.985 58.2233 3.96214
59.1502 53.8802 3.9686
57.9802 55.7447 3.96289
50.1069 67.8533 3.98424
47.4614 66.5729 3.98032
46.0541 69.1545 3.98584
48.1005 68.5757 2
48.8009 70.7226 3.99076
50.9483 69.9308 2
51.8506 72.1454 4
54.0858 71.1327 2
56.25 69.9759 0
55.1009 7.14229 3.98686
58.3339 6.31992 4
57.0589 8.34148 2
60.3286 7.74926 2
58.9188 9.65885 0.0190036
62.2254 9.30607 0
68.2594 48.106 0.0348422
69.4252 43.9073 0.0333858
66.6112 45.4227 0.0304841
67.513 41.4904 0.0290414
70.037 39.6583 0.0323377
72.4875 37.5126 0.0222849
70.1244 37.5231 2
67.756 39.5098 2
67.1297 43.4574 2
65.352 41.1906 2
65.9653 47.3958 2
64.4283 44.8106 2
67.8586 37.5239 3.97146
65.5935 39.3623 3.97689
64.9714 42.9979 3.97661
63.458 40.9038 3.97686
63.7411 46.6713 3.97294
62.4832 44.1585 3.97658
70.0538 35.3939 0.0324069
69.4623 31.1522 0.0335763
67.5798 33.6012 0.0296882
66.6872 29.6414 0.0313828
62.3384 12.6589 0.022635
62.1916 15.8 0.0328108
61.7642 18.7157 0.038319
65.4402 25.7236 0.0333258
63.9553 28.3002 0.0259948
62.6902 24.691 0.0298049
61.0781 21.4015 0.0347364
60.1966 23.8112 0.0281922
59.2404 12.8083 0.0317403
56.3951 13.1661 0.03141
55.8698 10.2491 0.0266193
67.7954 35.5538 2
67.187 31.6372 2
65.508 33.9477 2
64.4682 30.2309 2
60.7687 14.246 2
60.5838 17.1593 2
60.0936 19.8806 2
63.3563 26.4653 2
61.9665 28.8488 2
59.4439 22.3481 2
60.7924 25.4193 2
58.6841 24.4297 2
57.8971 14.3742 2
55.2957 14.7087 2
54.0364 9.14586 2
54.7781 12.0544 2
65.6918 35.6781 3.97704
64.9917 32.1833 3.97642
64.021 34.2755 3.97693
62.2864 30.6947 3.97617
61.3775 27.1486 3.97571
60.496 29.2269 3.9764
59.2952 15.7039 3.96291
59.0023 25.9055 3.97604
59.0412 18.4155 3.961
58.546 20.9459 3.96344
58.0029 23.2065 3.96921
57.6443 24.7893 3.97502
52.1098 8.16168 3.978
53.0506 11.0471 3.97125
56.6542 15.7988 3.9633
53.7929 13.7463 3.96615
54.3411 16.0744 3.96103
55.0692 67.9312 0.0110258
65.2314 49.3833 0.033056
55.8016 64.902 0.0229377
59.2135 62.34 0.0303223
56.3175 62.0497 0.0296845
63.6292 53.2665 0.0354413
62.2483 50.5982 0.0308941
59.3201 59.53 0.035915
59.2186 56.9662 0.037715
60.9525 54.261 0.033365
59.1174 55.1256 0.0327136
53.0428 68.9988 2
53.9648 66.0066 2
57.8672 60.8365 2
54.6762 63.1879 2
55.1923 60.5675 2
62.9841 48.6097 2
61.5793 52.5224 2
59.9841 49.9386 2
57.9822 58.224 2
59.1537 53.8801 2
57.9769 55.743 2
52.0681 66.9956 3.98292
52.9491 64.2053 3.97671
56.6276 59.4485 3.96873
53.6666 61.5795 3.97192
54.2328 59.2716 3.97529
[...]
POINT_DATA 3012
SCALARS Jp_lamdaP float 4
LOOKUP_TABLE default
0.999694 1 1 0.999694
1 1 1 1
0.999703 1 1 0.999703
0.99964 1 1 0.99964
0.999695 1 1 0.999695
0.999676 1 1 0.999676
0.998898 1 1 0.998898
1 1 1 1
1 1 1 1
1 1 1 1
0.999769 1 1 0.999769
0.999015 1 1 0.999015
0.999631 1 1 0.999631
0.999642 1 1 0.999642
0.999704 1 1 0.999704
0.999665 1 1 0.999665
0.999683 1 1 0.999683
0.999711 1 1 0.999711
0.998899 1 1 0.998899
1 1 1 1
0.999621 1 1 0.999621
0.999673 1 1 0.999673
0.998772 1 1 0.998772
0.998875 1 1 0.998875
0.999684 1 1 0.999684
0.998915 1 1 0.998915
1.01086 1.01321 1 0.997679
1 1 1 1
0.999838 1 1 0.999838
0.999851 1 1 0.999851
1 1 1 1
0.999024 1 1 0.999024
0.999668 1 1 0.999668
0.999695 1 1 0.999695
0.999063 1.00002 1 0.999038
1 1 1 1
0.999123 1 1 0.999123
0.999116 1 1 0.999116
1.00444 1.00679 1 0.997665
1 1 1 1
1 1 1 1
0.999821 1 1 0.999821
1 1 1 1
0.999646 1 1 0.999646
0.9987 1 1 0.9987
1 1 1 1
0.99894 1 1 0.99894
0.999687 1 1 0.999687
0.999722 1 1 0.999722
0.999685 1 1 0.999685
0.998905 1 1 0.998905
0.999805 1 1 0.999805
0.999644 1 1 0.999644
0.999697 1 1 0.999697
0.999695 1 1 0.999695
0.998769 1 1 0.998769
0.998918 1 1 0.998918
0.998876 1 1 0.998876
1.01128 1.01364 1 0.997664
1 1 1 1
0.99962 1 1 0.99962
0.99896 1 1 0.99896
0.99874 1 1 0.99874
0.998826 1 1 0.998826
1.01426 1.0169 1 0.997407
1.01236 1.01487 1 0.997523
0.999748 1 1 0.999748
0.999019 1 1 0.999019
1.00833 1.01058 1 0.997772
1.0293 1.03261 1 0.996797
1 1 1 1
1 1 1 1
1 1 1 1
0.999032 1 1 0.999032
1 1 1 1
1 1 1 1
0.998887 1.00001 1 0.998873
0.999916 1 1 0.999916
0.998978 1 1 0.998978
0.99924 1 1.00002 0.999223
1.00325 1.0056 1 0.997662
1 1 1 1
1.00106 1 1.00126 0.999793
0.998799 1 1 0.998797
0.998912 1 1 0.998907
1.01523 1.01804 1 0.997239
0.999792 1 1.00033 0.999464
1.00894 1.0114 1 0.997564
1.00068 1.00288 1 0.997813
1.01128 1.01436 1 0.996958
1 1 1 1
1 1 1 1
1 1 1 1
1 1 1 1
1 1 1 1
0.999821 1 1 0.999821
0.998823 1 1 0.998823
0.999823 1 1 0.999823
0.998852 1 1 0.998852
1 1 1 1
0.998711 1 1 0.998711
0.998929 1 1 0.998929
1.01408 1.01709 1 0.997036
0.998975 1 1 0.998975
1.0167 1.01968 1 0.997078
0.999652 1 1 0.999652
0.999665 1 1 0.999665
0.999707 1 1 0.999707
0.999714 1 1 0.999714
0.998768 1 1 0.998768
0.99888 1 1 0.99888
0.998924 1 1 0.998924
1.01168 1.01406 1 0.99765
1 1 1 1
0.999642 1 1 0.999642
0.998739 1 1 0.998739
0.998735 1 1 0.998735
0.999875 1 1 0.999875
0.999094 1 1 0.999094
0.998826 1 1 0.998826
1.01423 1.01691 1 0.997369
1.00902 1.01129 1 0.997754
1.01264 1.01512 1 0.997551
1.02923 1.03253 1 0.996804
0.998733 1 1 0.998733
0.998734 1 1 0.998734
1.01284 1.01562 1 0.99727
1.01422 1.01696 1 0.99731
1.01406 1.01668 1 0.997419
1.03818 1.0416 1 0.996715
1 1 1 1
1.03227 1.03561 1 0.996766
0.999468 1 1.00024 0.999231
1.00401 1.00627 1 0.997757
1.02579 1.02905 1 0.996828
1.03614 1.03962 1 0.996655
1.0013 1 1.00175 0.999545
1.00646 1 1.00797 0.998503
1 1 1 1
1 1 1 1
0.998895 1.00002 1 0.998879
1 1 1 1
0.999307 1 1.00012 0.999183
0.998984 1 1 0.998984
1.00214 1.00449 1 0.997658
1 1 1 1
1.00062 1 1.0008 0.999816
0.998931 1.00003 1 0.998903
0.999008 1 1 0.999005
1.01462 1.01743 1 0.99724
1.00005 1 1.00063 0.999418
1.00767 1.01013 1 0.997567
0.999989 1.00218 1.00001 0.997812
1.01226 1.01536 1 0.996945
1.00114 1 1.00152 0.999613
0.999907 1 1 0.999907
1.00314 1 1.00436 0.998787
1.01677 1.01969 1 0.997135
1.01273 1.01537 1 0.997401
1.03557 1.03907 1 0.996632
0.999433 1.00079 1.00055 0.998089
1.02109 1.02427 1 0.996895
1.0077 1.0101 1.00057 0.99705
1.02084 1.02414 1 0.996784
1 1 1 1
1 1 1 1
1 1 1 1
1.0005 1 1.00082 0.999681
1 1 1 1
1 1 1 1
1 1 1 1
0.998765 1 1 0.998765
0.998733 1 1 0.998733
1 1 1 1
1 1 1 1
0.998712 1 1 0.998712
0.998842 1 1 0.998842
1.01457 1.01758 1 0.997037
0.998783 1 1 0.998783
1.01689 1.01987 1 0.997077
0.998708 1 1 0.998708
1.01282 1.01587 1 0.997002
1.01556 1.01855 1 0.997069
1.04292 1.04645 1 0.996629
1.01711 1.02008 1 0.997089
1.04433 1.04785 1 0.996638
1 1 1 1
0.999664 1 1 0.999664
0.998495 1 1 0.998495
0.998731 1 1 0.998731
1 1 1 1
0.999171 1 1 0.999171
0.998828 1 1 0.998828
1.01418 1.01689 1 0.99733
1.01295 1.01541 1 0.997579
1.00972 1.01201 1 0.997737
1.02914 1.03243 1 0.996811
0.998731 1 1 0.998731
0.998729 1 1 0.998729
1.01273 1.01563 1 0.997147
1.01425 1.01696 1 0.997334
1 1 1 1
0.999374 1 1.0001 0.999269
1.00534 1.00752 1 0.997833
1.014 1.01663 1 0.997415
1.03799 1.04143 1 0.996696
1.0252 1.02847 1 0.99682
1.03249 1.0358 1 0.996802
1.03576 1.03923 1 0.996664
1.00121 1 1.00167 0.999534
1.00481 1 1.00631 0.998505
1.01243 1.01545 1 0.997023
1.01313 1.01588 1 0.997297
1.04005 1.04349 1 0.996699
1.03845 1.04192 1 0.996666
1.03541 1.03874 1 0.996792
1.04623 1.04962 1 0.996767
1.00053 1 1.00114 0.99939
1.03855 1.04197 1 0.996725
1.00031 1.00227 1.00011 0.997942
1.0183 1.02146 1 0.996913
1.03367 1.03719 1 0.99661
1.03685 1.04015 1 0.996824
1.00309 1.00011 1.00471 0.998281
1.0032 1 1.00443 0.998782
1.00328 1.00001 1.00546 0.997832
0.998847 1.00002 1 0.998825
1 1 1 1
1.00012 1 1.00028 0.999839
0.99894 1 1 0.99894
1.01399 1.01679 1 0.99724
1.00019 1 1.00076 0.999422
0.999041 1.00119 1.00004 0.99781
1.00641 1.00887 1 0.997569
1.01331 1.01643 1 0.996932
1.00094 1 1.0013 0.999635
0.999923 1 1 0.999923
1.00368 1 1.0049 0.998788
1.01638 1.0193 1 0.997134
1.01174 1.01438 1 0.997405
1.03569 1.03919 1 0.996627
0.998923 1.00036 1.00048 0.998093
1.02225 1.02543 1 0.996901
1.00683 1.00934 1.00047 0.997044
1.02157 1.02487 1 0.996776
0.999961 1 1 0.999961
1.00129 1.00007 1.00282 0.998412
1.00171 1 1.00255 0.999167
1.00362 1 1.00552 0.998115
1.0399 1.04346 1 0.996592
1.02972 1.03307 1 0.99676
1.04036 1.04396 1 0.996551
1.00298 1.00514 1.00049 0.997373
1.02818 1.0315 1 0.996781
1.0169 1.01864 1.00158 0.996723
1.02922 1.03265 1 0.996683
0.9997 1 1 0.9997
0.999994 1 1 0.999994
1 1 1 1
1 1 1 1
1 1 1 1
0.999824 1 1.00002 0.999802
1 1 1 1
1.00103 1 1.00137 0.999667
1 1 1 1
0.998804 1.00002 1 0.998784
0.998752 1 1 0.998752
1.01719 1.02017 1 0.997077
1.01503 1.01804 1 0.997037
0.998714 1 1 0.998714
1 1 1 1
0.998707 1 1 0.998707
1.01315 1.0162 1 0.997002
1.01597 1.01896 1 0.997068
1.04225 1.04577 1 0.996627
1.01717 1.02014 1 0.997087
1.04443 1.04795 1 0.996635
1.01227 1.01532 1 0.996998
1.04166 1.04522 1 0.996598
1.04365 1.04717 1 0.996646
1.05009 1.05469 0.998756 0.996885
1.04383 1.04738 1 0.99661
1.05203 1.05571 0.999713 0.996796
0.998728 1 1 0.998728
0.998723 1 1 0.998723
1.01263 1.01565 1 0.997025
1.0143 1.01699 1 0.997357
1 1 1 1
0.999308 1 1 0.999308
1.00662 1.00873 1 0.997907
1.01395 1.01658 1 0.99741
1.03785 1.04131 1 0.996677
1.03267 1.03595 1 0.996837
1.02463 1.02791 1 0.996812
1.03553 1.03898 1 0.996672
1.00131 1 1.00179 0.999522
1.00394 1 1.00544 0.998507
1.01233 1.01537 1 0.997003
1.01316 1.01591 1 0.997292
1.03999 1.04341 1 0.996718
1.0385 1.04196 1 0.996681
1.00023 1 1.00085 0.999379
1.0014 1.0034 1.00007 0.997939
1.01796 1.02107 1 0.996947
1.0357 1.03905 1 0.996778
1.04648 1.04984 0.999987 0.996805
1.03324 1.03678 1 0.996588
1.03846 1.04187 1 0.99673
1.03707 1.04038 1 0.996822
1.00273 1.00015 1.00431 0.998284
1.00391 1.00015 1.00594 0.997835
1.00377 1 1.005 0.99878
1.03991 1.0434 1 0.996664
1.03932 1.04273 1 0.996734
1.05004 1.05431 0.999113 0.996828
1.04763 1.05126 0.999757 0.996792
1.04154 1.04489 1 0.996795
1.0429 1.04814 0.997908 0.997084
0.999178 1.00045 1.0006 0.998125
1.0392 1.04239 0.999989 0.996945
1.00739 1.01019 1 0.997227
1.02484 1.02844 1 0.996506
1.03322 1.0368 1 0.996549
1.032 1.03503 1 0.997067
1.00113 1 1.00209 0.999046
0.999038 1.00063 1.00067 0.997739
1.00805 1 1.01008 0.997991
1.00181 1.00157 1.00266 0.997591
1.01604 1.01896 1 0.997132
0.999939 1 1 0.999939
1.00087 1 1.00121 0.999657
1.00457 1 1.00579 0.998789
1.01076 1.01339 1 0.997408
1.03582 1.03933 1 0.996623
0.998556 1.00005 1.00041 0.998097
1.00596 1.00862 1.00033 0.997039
1.0234 1.02658 1 0.996906
1.02162 1.02494 1 0.996768
0.999969 1 1 0.999969
1.00216 1.00002 1.00373 0.998412
1.00121 1 1.00204 0.999176
1.00427 1 1.00617 0.998109
1.03977 1.04333 1 0.996586
1.02993 1.03328 1 0.996758
1.03998 1.04359 1 0.996549
1.00151 1.00369 1.00045 0.99738
1.0279 1.03121 1 0.996784
1.01664 1.01823 1.00173 0.996711
1.02901 1.03235 1 0.996762
0.999986 1 1 0.999986
0.999857 1 1.00042 0.999436
1.00072 1.00108 1.00186 0.997778
1.00415 1 1.00569 0.998465
1.00106 1.00013 1.00314 0.997805
1.04489 1.04846 1 0.996595
1.03426 1.03775 1 0.996637
1.03594 1.03941 1 0.996663
1.00681 1.00784 1.00199 0.996989
1.02675 1.03008 1 0.996768
1.01666 1.01938 1.00086 0.996474
0.999661 1 1 0.999661
0.999161 1 1 0.999161
0.999731 1 1 0.999731
0.999702 1 1 0.999702
0.999998 1 1 0.999998
0.999995 1 1 0.999995
1 1 1 1
1 1 1 1
1 1 1 1
0.999907 1 1 0.999907
1 1 1 1
1.00009 1 1.0003 0.999786
1 1 1 1
1.00114 1 1.00149 0.999653
1 1 1 1
1.01715 1.02013 1 0.997084
1.01633 1.01931 1 0.997068
1.04425 1.04778 1 0.996632
1.04156 1.04509 1 0.996625
1.01355 1.0166 1 0.997002
0.998706 1 1 0.998706
1.01241 1.01546 1 0.996998
1.04134 1.04489 1 0.996598
1.04323 1.04675 1 0.996643
1.05037 1.05526 0.99846 0.996903
1.04315 1.0467 1 0.996606
1.05162 1.05524 0.999775 0.996794
1.04036 1.04392 1 0.99659
1.04918 1.0547 0.997858 0.996907
1.05173 1.05581 0.999269 0.996857
1.04705 1.05481 0.995504 0.99712
1.04817 1.05164 1 0.996701
1.04856 1.05508 0.996678 0.997135
1.01227 1.01534 1 0.996983
1.0132 1.01596 1 0.997288
1.03994 1.04334 1 0.996736
1.03853 1.04197 1 0.996696
0.999926 1 1.00056 0.999368
1.00243 1.00447 1.00003 0.997937
1.01793 1.02101 1 0.99698
1.03601 1.03937 1 0.996763
1.04674 1.05007 0.999989 0.996844
1.03843 1.04183 1 0.996734
1.03265 1.03621 1 0.996565
1.03728 1.04059 1 0.99682
1.00205 1.00022 1.00356 0.998286
1.0044 1.00029 1.00629 0.997838
1.00409 1 1.00532 0.998778
1.04001 1.04352 1 0.996637
1.03953 1.04294 1 0.996732
1.04951 1.05395 0.998922 0.996868
1.04784 1.05152 0.999721 0.996779
0.999783 1.00092 1.00074 0.998123
1.00865 1.01146 1 0.997222
1.02358 1.02709 1.00003 0.99655
1.0417 1.04507 1 0.996767
1.04264 1.04809 0.997655 0.997133
1.03377 1.03739 1 0.996512
1.03912 1.04231 0.999996 0.996948
1.03274 1.03574 1 0.997101
1.00015 1.00124 1.00117 0.99774
1.00189 1.00157 1.00277 0.997561
1.00171 1 1.00267 0.999042
1.00748 1 1.00947 0.998029
1.04952 1.05407 0.998824 0.996855
1.04988 1.05409 0.99918 0.996827
1.04359 1.0512 0.995717 0.997033
1.04285 1.05097 0.995105 0.997156
1.04087 1.04454 0.999406 0.99707
1.03937 1.04707 0.995317 0.997316
1.00084 1.00332 1 0.997535
1.03383 1.03779 0.998885 0.997301
1.01275 1.01601 1 0.996785
1.02309 1.02671 1.00018 0.9963
1.03473 1.03834 1 0.996525
1.03353 1.03649 1 0.997137
0.999622 1 1.00036 0.999259
1.00683 1 1.00858 0.998267
1.00034 1.00287 1 0.997472
1.00416 1 1.00645 0.997726
1.00197 1.00233 1.00217 0.997488
0.999978 1 1 0.999978
1.03958 1.04315 1 0.996581
1.00044 1 1.00125 0.999185
1.00295 1.00001 1.00453 0.998413
1.00486 1 1.00677 0.998103
1.03014 1.03349 1 0.996757
1.03965 1.04325 1 0.996546
1.00017 1.00228 1.00051 0.997386
1.01756 1.01896 1.00193 0.996699
1.02774 1.03105 1 0.996786
1.02932 1.03258 1 0.99684
0.999988 1 1 0.999988
0.999662 1 1.00022 0.999445
0.999843 1.00073 1.00134 0.99778
1.00515 1 1.00669 0.998464
1.00147 1.00009 1.0036 0.997789
1.0448 1.04838 1 0.996589
1.03417 1.03766 1 0.996635
1.03596 1.03944 1 0.996651
1.00672 1.00761 1.00213 0.996994
1.02915 1.03249 1 0.996764
1.01686 1.01945 1.00096 0.996496
0.999586 1 1 0.999586
1.00085 1 1.00205 0.998806
1.0008 1.00289 1.00048 0.99744
1.00605 1 1.00797 0.998094
1.00096 1.00119 1.00203 0.997741
1.04152 1.04489 1 0.996779
1.03039 1.03382 1 0.996684
1.03522 1.03847 1 0.996869
1.00302 1.00243 1.00379 0.996807
1.01515 1.0188 1 0.99642
0.999664 1 1 0.999664
0.999084 1 1 0.999084
0.999136 1 1 0.999136
0.998887 1 1 0.998887
0.999179 1 1 0.999179
0.999746 1 1 0.999746
0.999732 1 1 0.999732
1 1 1 1
0.999704 1 1 0.999704
0.999998 1 1 0.999998
1 1 1 1
0.999997 1 1 0.999997
1 1 1 1
1 1 1 1
0.999973 1 1 0.999973
0.999898 1 1.00001 0.999888
1 1 1 1
1 1 1 1
1.00043 1 1.00066 0.99977
1 1 1 1
1.0426 1.04615 1 0.996602
1.04303 1.04655 1 0.996641
1.05141 1.05496 0.999839 0.996791
1.05071 1.05588 0.998177 0.99692
1.04092 1.04447 1 0.996598
1.01247 1.01552 1 0.996997
1.04032 1.04388 1 0.996591
1.0491 1.05455 0.997925 0.996901
1.05191 1.05591 0.999359 0.996857
1.04624 1.05454 0.994965 0.997151
1.04891 1.05238 1 0.996694
1.04848 1.055 0.996649 0.997158
1.04923 1.05431 0.998306 0.996876
1.04491 1.05313 0.995091 0.997094
1.04712 1.05551 0.99484 0.997195
1.04514 1.05589 0.992523 0.997276
1.04705 1.05093 0.999325 0.996983
1.04541 1.05537 0.993181 0.997366
1.03999 1.04353 1 0.99661
1.03971 1.04312 1 0.996729
1.04896 1.05355 0.998734 0.996908
1.04794 1.05169 0.99967 0.996766
1.00044 1.00145 1.00087 0.998121
1.00939 1.01221 1 0.997217
1.02206 1.02537 1.00018 0.996595
1.04181 1.04521 1 0.99674
1.04235 1.04805 0.997378 0.997182
1.03897 1.04215 1 0.996951
1.0343 1.03795 1 0.996475
1.03285 1.03581 1 0.997136
1.00123 1.00171 1.00179 0.997741
1.00179 1.00137 1.0029 0.997532
1.00214 1 1.0031 0.999038
1.00647 1 1.00842 0.998068
1.0493 1.05383 0.998839 0.996855
1.04948 1.05357 0.999311 0.996806
1.04378 1.05148 0.995595 0.997066
1.04334 1.051 0.995561 0.997139
1.00178 1.00426 1 0.997527
1.01125 1.01443 1.00003 0.996829
1.02346 1.02687 1.00039 0.99629
1.04073 1.04425 0.99961 0.997022
1.03833 1.04636 0.994944 0.997373
1.03164 1.03525 1 0.996511
1.03478 1.03867 0.998958 0.997302
1.03407 1.03697 1 0.997195
1.00036 1.0029 1 0.99747
1.00175 1.00282 1.00146 0.997488
1.0049 1.00018 1.00702 0.99772
0.999983 1 1.00076 0.999222
1.00632 1 1.00803 0.998304
1.04365 1.05228 0.994709 0.997081
1.04385 1.05272 0.994438 0.997112
1.03903 1.05077 0.99144 0.99736
1.03519 1.04304 0.99508 0.997381
1.00375 1.00656 1 0.997213
1.03877 1.04279 0.99866 0.997479
1.00709 1.01031 1.00029 0.996531
1.02037 1.02385 1.00051 0.996092
1.029 1.0326 1 0.996508
0.999412 1 1 0.999412
1.00295 1 1.00435 0.998611
1.00571 1 1.00771 0.998019
1.00194 1.00458 1 0.997371
1.00384 1 1.0064 0.997454
1.00167 1.0032 1.00113 0.997346
0.999991 1 1 0.999991
0.999479 1 1.00002 0.999454
1.04471 1.04829 1 0.996583
1.00625 1 1.0078 0.998463
0.998799 1.00028 1.00074 0.997783
1.00167 1 1.0039 0.997773
1.03395 1.03744 1 0.996634
1.03585 1.03934 1 0.996639
1.00607 1.00679 1.00229 0.996998
1.01605 1.01881 1.00077 0.996517
1.03146 1.03481 1 0.996761
0.999591 1 1 0.999591
1.00069 1 1.00188 0.99881
1.00051 1.00267 1.00041 0.997437
1.00721 1 1.00914 0.998088
1.00078 1.00131 1.00174 0.997743
1.0415 1.04487 1 0.996773
1.0308 1.03424 1 0.996673
1.03509 1.03832 1 0.996895
1.00397 1.00397 1.00324 0.996769
1.01401 1.01763 1.00006 0.996391
0.999027 1 1 0.999027
1.00647 1 1.00811 0.998374
1.00224 1.00294 1.002 0.997311
1.00582 1.00141 1.00656 0.99786
1.00385 1.00524 1.001 0.99762
1.04079 1.04523 0.998487 0.997262
1.02984 1.03337 1 0.996584
1.03183 1.03505 1 0.996894
1.00574 1.00479 1.00433 0.996634
1.00552 1.00935 1 0.996202
0.999667 1 1 0.999667
0.999102 1 1 0.999102
0.998808 1 1 0.998808
0.999111 1 1 0.999111
0.999178 1 1 0.999178
0.998857 1 1 0.998857
0.998751 1 1 0.998751
0.998801 1 1 0.998801
0.999193 1 1 0.999193
0.99974 1 1 0.99974
0.999746 1 1 0.999746
1 1 1 1
0.999734 1 1 0.999734
1 1 1 1
1 1 1 1
0.999999 1 1 0.999999
1 1 1 1
1 1 1 1
0.999997 1 1 0.999997
0.999959 1 1 0.999959
1 1 1 1
1.00002 1 1.00015 0.999869
1 1 1 1
1 1 1 1
1.0496 1.05309 1 0.996687
1.05188 1.05578 0.999443 0.996857
1.04836 1.05488 0.996634 0.99718
1.04538 1.05424 0.994407 0.997182
1.04907 1.05444 0.998011 0.996896
1.04041 1.04397 1 0.996591
1.04918 1.05416 0.99842 0.996856
1.04546 1.05326 0.995493 0.997087
1.04674 1.0551 0.994885 0.997179
1.04418 1.05546 0.992006 0.997288
1.0466 1.05028 0.999512 0.996984
1.04364 1.05435 0.992424 0.997407
1.04557 1.05305 0.995819 0.997069
1.04544 1.05697 0.991792 0.997272
1.04536 1.05755 0.99107 0.997377
1.04107 1.05139 0.99273 0.997435
1.04914 1.05366 0.998854 0.996855
1.04918 1.05315 0.999441 0.996784
1.04399 1.05176 0.995498 0.997099
1.04391 1.05112 0.99601 0.997121
1.00307 1.00556 1 0.997519
1.01027 1.01344 1 0.996872
1.02378 1.02701 1.00058 0.99628
1.04064 1.04398 0.999832 0.996974
1.03724 1.0456 0.994559 0.997431
1.03605 1.03987 0.99902 0.997303
1.0293 1.03292 1 0.996496
1.03605 1.0389 1 0.997253
1.00081 1.00335 1 0.997469
1.00195 1.00379 1.00069 0.997487
1.00635 1.00033 1.00832 0.997713
1.0003 1 1.00111 0.999186
1.00612 1 1.00779 0.998342
1.04418 1.05273 0.994777 0.997083
1.04426 1.05313 0.994453 0.997107
1.03883 1.05002 0.991965 0.997351
1.00403 1.00684 1 0.997207
1.00764 1.01085 1.00026 0.996574
1.01904 1.02227 1.00076 0.99608
1.03574 1.04332 0.995358 0.997367
1.03142 1.03493 1 0.996613
1.03532 1.03961 0.998419 0.997447
0.999444 1 1 0.999444
1.00248 1.00514 1 0.99736
1.00038 1.0024 1.00051 0.997475
1.0051 1.00037 1.0073 0.997444
1.00594 1 1.00791 0.998041
1.00296 1 1.00439 0.998576
1.04379 1.05514 0.992057 0.997162
1.04218 1.05703 0.98864 0.997284
1.03272 1.04831 0.987653 0.997444
1.03425 1.04604 0.991125 0.997585
1.00471 1.00772 1 0.997015
1.0303 1.03362 0.999739 0.997055
1.00384 1.00611 1.00165 0.996114
1.01077 1.01385 1.00104 0.995927
0.999659 1 1 0.999659
0.99985 1 1.00096 0.99889
1.00397 1 1.0057 0.998275
1.00587 1 1.00828 0.997617
1.00266 1.00435 1.00113 0.997186
1.00691 1.00138 1.00838 0.997165
0.999597 1 1 0.999597
1.00049 1 1.00168 0.998814
1.0417 1.04508 1 0.996766
1.00835 1 1.01029 0.998083
1.00023 1.00253 1.00027 0.997435
1.00024 1.00098 1.00152 0.997744
1.03145 1.0349 1 0.996661
1.03527 1.03847 1 0.996921
1.00524 1.00579 1.00273 0.99673
1.01293 1.01636 1.00027 0.996362
0.999031 1 1 0.999031
1.0065 1 1.00815 0.998368
1.00267 1.00338 1.00198 0.99732
1.00503 1.00088 1.00629 0.997869
1.00387 1.0057 1.00048 0.9977
1.04176 1.04636 0.998293 0.997308
1.02941 1.03292 1 0.996603
1.03341 1.03655 1 0.996966
1.00564 1.00447 1.00458 0.996599
1.00587 1.00975 1.00003 0.996135
0.999381 1 1.00068 0.998699
1.00701 1 1.00903 0.99799
1.00654 1.00557 1.00378 0.997191
1.00339 1.00429 1.00161 0.997502
1.03868 1.05924 0.982982 0.997562
1.03488 1.03855 0.999123 0.997346
1.01805 1.02182 1 0.996306
1.00799 1.00752 1.00426 0.996217
0.999121 1 1 0.999121
0.998821 1 1 0.998821
0.998742 1 1 0.998742
0.999177 1 1 0.999177
0.998827 1 1 0.998827
0.999192 1 1 0.999192
0.998751 1 1 0.998751
0.998823 1 1.00001 0.998813
0.99876 1 1 0.99876
0.998739 1 1.0001 0.99864
0.998764 1 1 0.998764
0.999173 1 1 0.999173
0.999715 1 1 0.999715
0.999739 1 1 0.999739
1 1 1 1
0.999746 1 1 0.999746
1 1 1 1
1 1 1 1
1 1 1 1
1 1 1 1
1 1 1 1
1 1 1 1
0.999992 1 1 0.999992
1 1 1 1
0.999945 1 1 0.999945
1 1 1 1
1 1 1 1
1.04605 1.04951 0.999712 0.996985
1.04642 1.05478 0.994904 0.997163
1.04196 1.0534 0.991668 0.997447
1.04329 1.0551 0.991488 0.9973
1.04601 1.0534 0.99589 0.997079
1.04904 1.05394 0.998508 0.996837
1.04533 1.05296 0.995678 0.997068
1.0453 1.05664 0.991981 0.997263
1.04427 1.05674 0.9908 0.997376
1.04248 1.05245 0.993067 0.997444
1.04641 1.05703 0.992718 0.997216
1.04709 1.06327 0.987324 0.997426
1.0461 1.06228 0.987239 0.997499
1.04469 1.05319 0.994825 0.997085
1.0446 1.05347 0.994462 0.997102
1.03873 1.04928 0.992578 0.997342
1.00384 1.00665 1 0.997201
1.00761 1.01085 1.00018 0.996617
1.01744 1.02059 1.00085 0.996068
1.03627 1.04358 0.995636 0.997354
1.03126 1.03582 0.998175 0.997416
1.03254 1.03594 1 0.996717
1.00144 1.00411 1 0.99735
0.998284 1.00068 1 0.997605
1.00614 1.00078 1.00794 0.997434
0.999475 1 1 0.999475
1.00524 1 1.00719 0.998064
1.00299 1 1.00446 0.99854
1.04456 1.05566 0.992292 0.997169
1.04164 1.05679 0.988347 0.997291
1.0329 1.04789 0.988223 0.997436
1.00252 1.00553 1 0.997007
1.0039 1.00633 1.0014 0.996193
1.0111 1.01425 1.0009 0.996
1.03441 1.04575 0.991546 0.99759
1.02832 1.0321 0.999297 0.997035
0.999718 1 1 0.999718
0.999829 1 1.00094 0.998889
1.00013 1.00285 1.00005 0.997236
1.00898 1.00118 1.01051 0.997311
1.00557 1 1.00793 0.997659
1.0039 1 1.00567 0.998243
1.04471 1.06066 0.987584 0.997347
1.03406 1.05703 0.980818 0.9974
1.0299 1.04788 0.985178 0.997633
1.02441 1.03465 0.99249 0.997599
1.00224 1.00428 1.00128 0.996691
1.01026 1.01267 1.0014 0.996223
1.00387 1.00534 1.00264 0.995902
0.999858 1 1 0.999858