# vtk DataFile Version 2.0
Wound Healing Simulation
ASCII
DATASET UNSTRUCTURED_GRID
POINTS 3012 float
69.9759 18.75 4
67.2507 60.3285 4
69.976 18.75 2
73.0099 25.446 4
71.1327 20.9142 4
68.6801 16.6661 4
67.8265 19.926 3.98463
67.2507 60.3286 2
71.1327 54.0858 4
68.6801 58.3339 4
65.6939 62.2254 4
65.3133 59.0023 3.98574
74.6784 42.3946 4
73.7221 47.2057 4
69.9759 18.75 0
73.0099 25.446 2
68.6801 16.6661 2
71.1327 20.9142 2
67.827 19.9286 2
74.6792 32.6053 4
73.7222 27.7943 4
72.1454 23.1494 4
70.615 26.2214 3.98457
68.8867 21.9585 3.98485
67.2507 14.6715 4
66.6382 17.9711 3.98507
65.7992 21.0247 3.97696
67.2507 60.3285 0
71.1327 54.0858 2
68.6801 58.3339 2
65.694 62.2255 2
65.3144 59.0002 2
72.1454 51.8506 4
69.9759 56.25 4
68.8371 53.1128 3.98391
64.0165 64.0165 4
66.6117 57.1345 3.98526
63.8869 60.7672 3.98751
63.5028 57.7742 3.97947
60.3285 67.2507 4
74.6792 42.3947 2
73.7222 47.2057 2
74.9194 39.9526 4
74.2788 44.8158 4
72.1686 42.0857 3.98269
73.0099 49.554 4
71.25 46.5982 3.98354
73.0099 25.446 0
71.1327 20.9142 0
68.6801 16.6661 0
67.8265 19.926 0.0153657
74.6792 32.6053 2
73.7222 27.7943 2
67.2508 14.6715 2
72.1455 23.1494 2
70.6151 26.2219 2
66.6391 17.9735 2
68.887 21.9605 2
65.7989 21.0247 2
74.9197 35.0474 4
74.2794 30.1841 4
72.1853 32.9433 3.98309
71.279 28.4315 3.98409
69.8164 24.0602 3.98478
68.3487 26.9511 3.97534
66.7644 22.933 3.97612
65.694 12.7746 4
65.325 16.102 3.98655
64.7163 19.1932 3.97835
63.8889 22.0346 3.97285
71.1327 54.0858 0
65.6939 62.2254 0
68.6801 58.3339 0
65.3133 59.0023 0.0142554
72.1455 51.8506 2
69.9759 56.25 2
68.8374 53.1107 2
64.0165 64.0165 2
66.6126 57.1318 2
63.888 60.7659 2
63.5029 57.7751 2
62.2254 65.694 4
58.8952 65.4149 3.99229
69.7697 50.9887 3.98393
67.7846 55.1675 3.9843
66.6508 52.2095 3.97496
62.3372 62.4285 3.98964
64.6633 56.0333 3.97867
62.2049 59.4076 3.98078
61.8257 56.6844 3.97557
58.3339 68.6801 4
60.3285 67.2508 2
73.7221 47.2057 0
74.6784 42.3946 0
74.9197 39.9526 2
74.2794 44.8159 2
72.1684 42.0857 2
73.0099 49.554 2
71.25 46.5978 2
75 37.5 4
72.4058 39.8023 3.98266
71.7832 44.3531 3.98328
69.805 41.7899 3.97332
70.5758 48.8135 3.98364
68.9139 46.0155 3.97431
74.6792 32.6053 0
73.7222 27.7943 0
67.2507 14.6715 0
72.1454 23.1494 0
70.615 26.2214 0.0154264
68.8867 21.9585 0.0151529
66.6382 17.9711 0.014926
65.7992 21.0247 0.0230401
74.9197 35.0474 2
74.2794 30.1841 2
72.185 32.9434 2
71.279 28.4317 2
65.694 12.7745 2
65.326 16.1036 2
69.8166 24.0614 2
68.3487 26.9513 2
64.7162 19.1926 2
66.7641 22.9333 2
63.8886 22.0344 2
72.4136 35.2242 3.98264
71.8044 30.6763 3.9834
69.841 33.268 3.97395
68.968 29.0377 3.97502
67.613 24.9119 3.97548
66.1965 27.6337 3.97188
64.0165 10.9835 4
64.7582 23.8295 3.97236
63.8913 14.3257 3.9882
63.5161 17.4437 3.98065
62.9094 20.3187 3.97366
62.0934 22.943 3.9708
60.6847 11.0965 3.99041
57.613 11.4439 3.98444
72.1454 51.8506 0
69.9759 56.25 0
68.8371 53.1128 0.0160853
64.0165 64.0165 0
63.8869 60.7672 0.0124917
66.6117 57.1345 0.0147398
63.5028 57.7742 0.0205333
62.2255 65.694 2
58.8957 65.4148 2
69.7698 50.9873 2
67.7851 55.1647 2
66.6505 52.2091 2
62.3381 62.4278 2
64.6632 56.0338 2
62.205 59.4087 2
61.8258 56.6854 2
60.6696 63.9779 3.99115
57.0259 66.7357 3.99295
57.559 63.6946 3.98627
67.5089 50.1771 3.97438
65.7036 54.1739 3.97612
64.5384 51.3859 3.97085
60.7746 60.9412 3.98256
62.8227 55.0702 3.97509
60.6606 58.1636 3.97659
60.3298 55.7886 3.97466
56.25 69.9759 4
58.3339 68.6801 2
60.3285 67.2507 0
58.9219 9.65488 3.99134
62.2254 9.30607 4
73.0099 49.554 0
74.2788 44.8158 0
71.25 46.5982 0.01646
72.1686 42.0857 0.0173085
74.9194 39.9526 0
75 37.5 2
72.4057 39.8024 2
71.7831 44.3527 2
69.8047 41.7897 2
70.5759 48.8128 2
68.9139 46.0151 2
72.4891 37.5121 3.98243
70.0419 39.6575 3.97304
69.4318 43.908 3.97401
67.598 41.498 3.96992
68.2673 48.1076 3.97404
66.7115 45.4409 3.97087
74.9197 35.0474 0
74.2794 30.1841 0
72.1853 32.9433 0.0169075
71.279 28.4315 0.0159108
65.694 12.7746 0
65.325 16.102 0.0134495
69.8164 24.0602 0.0152156
68.3487 26.9511 0.0246615
66.7644 22.933 0.0238761
64.7163 19.1932 0.0216526
63.8889 22.0346 0.0271475
72.4135 35.2241 2
71.8045 30.6765 2
69.8408 33.2682 2
68.968 29.0379 2
64.0165 10.9835 2
63.8922 14.3267 2
63.5162 17.4427 2
67.6128 24.9122 2
66.1964 27.6337 2
62.9094 20.318 2
64.7579 23.8294 2
62.0932 22.9428 2
60.6854 11.0971 2
57.6132 11.4432 2
70.0585 35.3917 3.97313
69.4683 31.1491 3.97411
67.6564 33.5904 3.97046
66.7741 29.6217 3.97115
65.5255 25.6987 3.97192
64.1479 28.2545 3.97091
62.3425 12.6538 3.98936
62.8574 24.6369 3.971
62.2013 15.7809 3.98233
61.8167 18.6813 3.97611
61.2184 21.341 3.97072
60.4243 23.7279 3.97063
59.2472 12.7755 3.98293
55.8749 10.2306 3.98598
56.4059 13.1091 3.98109
69.7697 50.9887 0.0160664
62.2254 65.694 0
58.8952 65.4149 0.00771412
67.7846 55.1675 0.0157027
66.6508 52.2095 0.0250399
62.3372 62.4285 0.0103622
62.2049 59.4076 0.0192232
64.6633 56.0333 0.0213263
61.8257 56.6844 0.0244332
60.6703 63.9775 2
57.0263 66.7357 2
57.5591 63.6957 2
67.5087 50.1767 2
65.7034 54.1739 2
64.5381 51.3859 2
60.7748 60.9424 2
62.8227 55.071 2
60.6608 58.1648 2
60.3301 55.7893 2
55.0714 67.9327 3.99319
59.2204 62.3692 3.98373
55.8058 64.9125 3.98846
56.328 62.0943 3.98242
65.3327 49.409 3.97036
63.7069 53.2931 3.97145
62.441 50.6524 3.96908
59.335 59.5614 3.97954
61.0783 54.3111 3.97379
59.2908 57.0157 3.97324
59.2433 55.1844 3.97622
48.1038 68.5802 3.98945
50.949 69.9323 3.99342
54.0858 71.1327 4
56.25 69.976 2
58.3339 68.6801 0
57.0591 8.335 3.9917
60.3285 7.74928 4
58.9225 9.65521 2
62.2255 9.30602 2
70.5758 48.8135 0.0163551
71.7832 44.3531 0.016722
68.9139 46.0155 0.025695
69.805 41.7899 0.0266804
72.4058 39.8023 0.0173394
75 37.5 0
72.4889 37.5121 2
70.0418 39.6574 2
69.4317 43.9078 2
67.5978 41.4979 2
68.2672 48.1072 2
66.7115 45.4408 2
70.1299 37.5215 3.97307
67.835 39.5125 3.96971
67.225 43.4707 3.97039
65.5558 41.2102 3.96985
66.0697 47.4187 3.9704
64.6538 44.8492 3.97011
72.4136 35.2242 0.0173614
71.8044 30.6763 0.0166012
69.841 33.268 0.0260454
68.968 29.0377 0.024984
64.0165 10.9835 0
63.8913 14.3257 0.0118043
63.5161 17.4437 0.0193495
67.613 24.9119 0.0245214
66.1965 27.6337 0.0281154
64.7582 23.8295 0.027643
62.9094 20.3187 0.0263393
62.0934 22.943 0.0291989
60.6847 11.0965 0.00958603
57.613 11.4439 0.0155646
70.0584 35.3919 2
69.4683 31.1493 2
67.6562 33.5904 2
66.7741 29.6217 2
62.3433 12.6545 2
62.2013 15.78 2
61.8169 18.6801 2
65.5254 25.6987 2
64.1478 28.2544 2
61.2185 21.3405 2
62.8572 24.6368 2
60.4242 23.7279 2
59.2473 12.7749 2
56.4059 13.1081 2
55.875 10.2298 2
67.8709 35.5472 3.96986
67.2662 31.6217 3.97031
65.6986 33.9268 3.97009
64.6643 30.1911 3.97005
63.5388 26.4135 3.97087
62.2586 28.777 3.97147
60.7767 14.22 3.98269
61.0442 25.3376 3.97107
60.6154 17.1234 3.9792
60.224 19.8143 3.97283
59.6594 22.2593 3.96917
58.9749 24.3213 3.97161
54.038 9.13376 3.98684
57.9113 14.3278 3.98105
54.7872 12.0083 3.9825
55.313 14.6419 3.97967
67.5089 50.1771 0.0256241
57.0259 66.7357 0.00705234
60.6696 63.9779 0.00884875
57.559 63.6946 0.0137294
65.7036 54.1739 0.0238785
64.5384 51.3859 0.0291492
60.7746 60.9412 0.0174393
60.6606 58.1636 0.0234099
62.8227 55.0702 0.0249105
60.3298 55.7886 0.0253414
55.0717 67.9328 2
59.2205 62.3703 2
55.8057 64.9134 2
56.328 62.0956 2
65.3325 49.4089 2
63.7068 53.2935 2
62.4408 50.6524 2
59.3352 59.5627 2
61.0785 54.3116 2
59.2912 57.0164 2
59.2437 55.1848 2
53.0432 69.0005 3.99335
53.9681 66.0148 3.98915
57.8818 60.8742 3.98097
54.6849 63.2117 3.98453
55.2123 60.6211 3.98047
63.194 48.6616 3.96906
61.7399 52.5753 3.96894
60.2697 50.0184 3.96863
58.0193 58.2651 3.97573
59.3267 53.9474 3.97305
58.1268 55.8119 3.97141
50.1105 67.8581 3.98942
47.4641 66.5838 3.98698
46.0573 69.1595 3.98946
48.1037 68.5806 2
48.8031 70.7236 3.99351
50.9493 69.9324 2
51.8506 72.1454 4
54.0858 71.1327 2
56.25 69.9759 0
55.1035 7.1396 3.992
58.3339 6.31992 4
57.0597 8.33511 2
60.3286 7.74926 2
58.9219 9.65488 0.00865546
62.2254 9.30607 0
68.2673 48.1076 0.0259636
69.4318 43.908 0.0259932
66.7115 45.4409 0.0291293
67.598 41.498 0.0300831
70.0419 39.6575 0.0269574
72.4891 37.5121 0.0175733
70.1297 37.5215 2
67.8349 39.5124 2
67.2249 43.4706 2
65.5556 41.2102 2
66.0697 47.4186 2
64.6537 44.8491 2
67.9312 37.5219 3.96973
65.7856 39.3704 3.96979
65.1771 43.0259 3.97007
63.7443 40.9299 3.97144
63.9659 46.7173 3.96949
62.8069 44.2169 3.97171
70.0585 35.3917 0.026875
69.4683 31.1491 0.0258853
67.6564 33.5904 0.0295441
66.7741 29.6217 0.0288455
62.3425 12.6538 0.0106449
62.2013 15.7809 0.017665
61.8167 18.6813 0.0238942
65.5255 25.6987 0.0280762
64.1479 28.2545 0.029091
62.8574 24.6369 0.0289954
61.2184 21.341 0.0292848
60.4243 23.7279 0.0293693
59.2472 12.7755 0.0170693
56.4059 13.1091 0.0189142
55.8749 10.2306 0.0140202
67.8708 35.5472 2
67.2663 31.6217 2
65.6984 33.9268 2
64.6643 30.191 2
60.7767 14.2193 2
60.6154 17.1221 2
60.2244 19.8132 2
63.5387 26.4134 2
62.2586 28.7769 2
59.6596 22.259 2
61.044 25.3376 2
58.9749 24.3215 2
57.9111 14.327 2
55.3128 14.641 2
54.038 9.13302 2
54.7872 12.0072 2
65.875 35.6666 3.96972
65.1864 32.1537 3.96956
64.2785 34.2495 3.97086
62.5925 30.6352 3.97106
61.6509 27.0716 3.97103
60.8469 29.1398 3.97359
59.3123 15.6646 3.98064
59.3247 25.7971 3.97246
59.1253 18.3519 3.97688
58.7387 20.8542 3.96936
58.2803 23.0947 3.96938
57.9617 24.6657 3.97179
52.1126 8.15198 3.98753
53.0583 11.0144 3.98349
56.6774 15.7382 3.98024
53.8097 13.6768 3.98079
54.3765 15.9945 3.97976
55.0714 67.9327 0.00681027
65.3327 49.409 0.0296449
55.8058 64.9125 0.0115365
59.2204 62.3692 0.0162673
56.328 62.0943 0.017579
63.7069 53.2931 0.0285486
62.441 50.6524 0.03092
59.335 59.5614 0.0204563
59.2908 57.0157 0.0267558
61.0783 54.3111 0.0262083
59.2433 55.1844 0.0237834
53.0435 69.0006 2
53.968 66.0155 2
57.8818 60.8754 2
54.6848 63.2128 2
55.2123 60.6226 2
63.1939 48.6616 2
61.74 52.5755 2
60.2697 50.0183 2
58.0199 58.2664 2
59.3273 53.9476 2
58.1273 55.8119 2
52.0716 67.0012 3.98936
52.9543 64.2223 3.98617
56.6492 59.493 3.97917
53.682 61.6276 3.98234
[...]
POINT_DATA 3012
SCALARS rho_c_phif_kappa float 4
LOOKUP_TABLE default
1000 0 1.00093 0.252215
1000 0 1.00082 0.252467
1000 0 1.00093 0.251994
1000 0 1.00093 0.252293
1000 0 1.00093 0.252177
1000 0 1.00093 0.252257
1006.27 7.15313e-09 1.00102 0.251872
1000 0 1.00082 0.252473
1000 0 1.00082 0.252256
1000 0 1.00082 0.252295
1000 0 1.00093 0.251921
1006.27 7.04871e-09 1.00108 0.251744
1000 0 1.00093 0.252354
1000 0 1.00093 0.25242
1000 0 1.00093 0.251774
1000 0 1.00093 0.25225
1000 0 1.00093 0.251985
1000 0 1.00093 0.252024
1006.28 7.1636e-09 1.00102 0.251998
1000 0 1.00082 0.252534
1000 0 1.00093 0.252395
1000 0 1.00093 0.252203
1006.23 7.20397e-09 1.00101 0.252039
1006.26 7.17518e-09 1.00101 0.251925
1000 0 1.00093 0.252225
1006.29 7.12996e-09 1.00102 0.251784
1006.04 7.04804e-09 1.00109 0.251664
1000 0 1.00082 0.252485
1000 0 1.00088 0.252146
1000 0 1.00087 0.252131
1000 0 1.00082 0.252515
1006.27 7.05882e-09 1.00108 0.251758
1000 0 1.00093 0.252018
1000 0 1.00093 0.251866
1006.26 7.18222e-09 1.00102 0.251953
1000 0 1.00082 0.252407
1006.26 7.09148e-09 1.00102 0.251977
1006.29 7.02412e-09 1.00108 0.251868
1006.06 7.07974e-09 1.00109 0.251759
1000 0 1.00082 0.25264
1000 0 1.00082 0.252544
1000 0 1.00088 0.252448
1000 0 1.00082 0.252563
1000 0 1.00093 0.252502
1006.2 7.20999e-09 1.00107 0.252161
1000 0 1.00082 0.252482
1006.24 7.22672e-09 1.00102 0.252094
1000 0 1.00093 0.252232
1000 0 1.00093 0.251867
1000 0 1.00093 0.251729
1006.27 7.15313e-09 1.00102 0.25212
1000 0 1.00087 0.252617
1000 0 1.00093 0.252383
1000 0 1.00093 0.251957
1000 0 1.00093 0.252111
1006.2 7.21235e-09 1.00101 0.252054
1006.3 7.1403e-09 1.00102 0.251939
1006.26 7.18465e-09 1.00101 0.252015
1006.04 7.04518e-09 1.00109 0.251594
1000 0 1.00082 0.252571
1000 0 1.00093 0.252459
1006.19 7.19919e-09 1.00102 0.25221
1006.22 7.20908e-09 1.00101 0.252111
1006.25 7.19304e-09 1.00101 0.251967
1006.02 7.00861e-09 1.00109 0.251444
1006.03 7.03277e-09 1.00109 0.251546
1000 0 1.00093 0.252136
1006.32 7.10764e-09 1.00102 0.251727
1006.05 7.06406e-09 1.00109 0.251688
1005.93 6.89906e-09 1.00108 0.250745
1000 0 1.00082 0.252338
1000 0 1.00082 0.252497
1000 0 1.00082 0.252442
1006.27 7.04871e-09 1.00108 0.251776
1000 0 1.00082 0.252323
1000 0 1.00082 0.252345
1006.26 7.19209e-09 1.00108 0.251898
1000 0 1.00087 0.252159
1006.27 7.10205e-09 1.00108 0.251824
1006.29 7.03233e-09 1.00105 0.251925
1006.06 7.07666e-09 1.00109 0.251783
1000 0 1.00082 0.252599
1006.42 7.02938e-09 1.00108 0.251957
1006.26 7.21089e-09 1.00107 0.252034
1006.26 7.14043e-09 1.00108 0.252004
1006.03 7.02564e-09 1.00108 0.251434
1006.33 7.01259e-09 1.00102 0.252019
1006.06 7.0676e-09 1.00108 0.251682
1006.06 7.08772e-09 1.00109 0.251813
1005.95 6.92754e-09 1.00108 0.251345
1000 0 1.00082 0.252669
1000 0 1.00082 0.252631
1000 0 1.00082 0.252442
1000 0 1.00082 0.25255
1000 0 1.00082 0.252563
1000 0 1.00087 0.252515
1006.15 7.22012e-09 1.00104 0.252117
1000 0 1.00088 0.252341
1006.19 7.23585e-09 1.00105 0.25209
1000 0 1.00082 0.252582
1006.18 7.19719e-09 1.00107 0.252105
1006.22 7.22051e-09 1.00102 0.252111
1006.01 6.99869e-09 1.00108 0.251273
1006.25 7.22499e-09 1.00102 0.251985
1006.01 7.00246e-09 1.00108 0.251441
1000 0 1.00093 0.252349
1000 0 1.00093 0.25241
1000 0 1.00093 0.251698
1000 0 1.00093 0.252024
1006.23 7.20397e-09 1.00101 0.252058
1006.26 7.17518e-09 1.00101 0.252103
1006.29 7.12996e-09 1.00102 0.252087
1006.04 7.04804e-09 1.00109 0.251529
1000 0 1.00082 0.252549
1000 0 1.00093 0.252465
1006.15 7.20955e-09 1.00104 0.252112
1006.17 7.21795e-09 1.00101 0.25212
1000 0 1.00087 0.252172
1006.31 7.1163e-09 1.00102 0.251909
1006.22 7.20166e-09 1.00101 0.252016
1006.02 7.00627e-09 1.00109 0.251401
1006.05 7.0612e-09 1.00109 0.251621
1006.03 7.03e-09 1.00109 0.251525
1005.93 6.89977e-09 1.00108 0.250739
1006.17 7.19296e-09 1.00107 0.252177
1006.21 7.20701e-09 1.00101 0.252138
1006.02 7.00185e-09 1.00108 0.251333
1006.01 7.00321e-09 1.00108 0.2514
1006.02 7.019e-09 1.00109 0.251447
1005.9 6.86239e-09 1.00107 0.250631
1000 0 1.00082 0.252503
1005.92 6.88478e-09 1.00107 0.250637
1006.34 7.08597e-09 1.00108 0.251717
1006.06 7.07689e-09 1.00109 0.251734
1005.94 6.91452e-09 1.00108 0.250876
1005.94 6.90734e-09 1.00107 0.250035
1006.41 7.06689e-09 1.00108 0.25199
1006.03 7.08019e-09 1.00108 0.252452
1000 0 1.00082 0.252332
1000 0 1.00082 0.252394
1006.26 7.18222e-09 1.00108 0.251915
1000 0 1.00082 0.252535
1006.29 7.02412e-09 1.00108 0.251779
1006.26 7.09148e-09 1.00108 0.251833
1006.06 7.07974e-09 1.00109 0.251804
1000 0 1.00082 0.252594
1006.41 7.03343e-09 1.00108 0.251966
1006.24 7.21976e-09 1.00105 0.252025
1006.27 7.15096e-09 1.00105 0.251992
1006.03 7.02292e-09 1.00108 0.251448
1006.32 7.01863e-09 1.00108 0.251826
1006.05 7.06449e-09 1.00108 0.25172
1006.06 7.08514e-09 1.00109 0.251832
1005.95 6.92796e-09 1.00108 0.251317
1006.38 7.01717e-09 1.00108 0.251905
1006.47 7.04255e-09 1.00108 0.251936
1006.03 7.08488e-09 1.00108 0.252363
1006.02 7.00932e-09 1.00108 0.251433
1006.04 7.04889e-09 1.00108 0.251514
1005.92 6.87993e-09 1.00107 0.25058
1006.05 7.08904e-09 1.00109 0.25208
1005.94 6.91661e-09 1.00108 0.251044
1005.96 6.93721e-09 1.00108 0.251395
1005.96 6.93546e-09 1.00108 0.250665
1000 0 1.00082 0.25269
1000 0 1.00082 0.252657
1000 0 1.00082 0.252621
1006.45 7.07092e-09 1.00108 0.252006
1000 0 1.00082 0.252559
1000 0 1.00082 0.252384
1000 0 1.00082 0.252498
1006.24 7.22672e-09 1.00107 0.252105
1006.2 7.20999e-09 1.00107 0.252161
1000 0 1.00082 0.252579
1000 0 1.00082 0.252573
1006.15 7.20778e-09 1.00107 0.252129
1006.19 7.23002e-09 1.00105 0.252116
1006.02 6.99607e-09 1.00108 0.251277
1006.22 7.23363e-09 1.00107 0.25202
1006.02 6.99992e-09 1.00108 0.251432
1006.18 7.18933e-09 1.00107 0.25214
1006.01 6.99534e-09 1.00108 0.251195
1006.02 7.00186e-09 1.00108 0.251375
1005.89 6.84872e-09 1.00107 0.250589
1006.01 7.00355e-09 1.00108 0.25145
1005.9 6.8567e-09 1.00107 0.250662
1000 0 1.00082 0.252551
1000 0 1.00093 0.2525
1006.19 7.19919e-09 1.00106 0.252186
1006.22 7.20908e-09 1.00101 0.252113
1000 0 1.00082 0.252325
1006.32 7.10764e-09 1.00102 0.252093
1006.25 7.19304e-09 1.00101 0.25206
1006.02 7.00861e-09 1.00108 0.251355
1006.03 7.03277e-09 1.00109 0.25151
1006.05 7.06406e-09 1.00109 0.25155
1005.93 6.89906e-09 1.00108 0.250732
1006.14 7.20364e-09 1.00107 0.252152
1006.17 7.21651e-09 1.00101 0.252152
1006.02 6.99931e-09 1.00108 0.251319
1006.03 7.00083e-09 1.00108 0.251411
1000 0 1.00082 0.252515
1006.33 7.09318e-09 1.00105 0.251857
1006.05 7.07402e-09 1.00109 0.251733
1006.03 7.01647e-09 1.00109 0.251419
1005.9 6.86261e-09 1.00107 0.250574
1005.94 6.91535e-09 1.00108 0.250856
1005.92 6.88527e-09 1.00107 0.250655
1005.94 6.90764e-09 1.00107 0.250042
1006.4 7.07253e-09 1.00108 0.251934
1006.03 7.07825e-09 1.00108 0.252412
1006.01 6.99707e-09 1.00108 0.251228
1006.02 7.00188e-09 1.00108 0.251401
1005.89 6.85185e-09 1.00107 0.25068
1005.9 6.85723e-09 1.00107 0.250571
1005.91 6.87202e-09 1.00107 0.250576
1005.91 6.8745e-09 1.00107 0.25001
1006.37 7.07073e-09 1.00108 0.25187
1005.93 6.89423e-09 1.00107 0.249942
1006.05 7.08248e-09 1.00109 0.252001
1005.95 6.92867e-09 1.00108 0.251182
1005.95 6.92308e-09 1.00108 0.250182
1005.93 6.9013e-09 1.00107 0.249336
1006.03 7.08092e-09 1.00108 0.252312
1006.01 7.07753e-09 1.00108 0.252591
1005.96 6.93972e-09 1.00108 0.252127
1006.26 7.21089e-09 1.00107 0.251987
1000 0 1.00082 0.252586
1006.42 7.02938e-09 1.00108 0.251965
1006.26 7.14043e-09 1.00108 0.251864
1006.03 7.02564e-09 1.00108 0.251464
1006.33 7.01259e-09 1.00108 0.251895
1006.06 7.08772e-09 1.00109 0.251854
1006.06 7.0676e-09 1.00108 0.251751
1005.95 6.92754e-09 1.00108 0.251293
1006.37 7.02214e-09 1.00108 0.251944
1006.46 7.04609e-09 1.00108 0.251911
1006.03 7.08285e-09 1.00108 0.252405
1006.02 7.00676e-09 1.00108 0.251429
1006.04 7.04595e-09 1.00108 0.251548
1005.92 6.88066e-09 1.00107 0.250578
1006.05 7.08664e-09 1.00109 0.252084
1005.95 6.91711e-09 1.00108 0.251066
1005.96 6.93774e-09 1.00108 0.251397
1005.96 6.93551e-09 1.00108 0.250595
1006.52 7.05732e-09 1.00109 0.251878
1006.04 7.08608e-09 1.00109 0.252292
1006.02 7.08271e-09 1.00108 0.252473
1005.96 6.94395e-09 1.00108 0.252163
1005.91 6.86717e-09 1.00107 0.250597
1005.93 6.89391e-09 1.00108 0.250709
1005.93 6.90588e-09 1.00107 0.249869
1005.96 6.94227e-09 1.00108 0.251727
1005.96 6.92897e-09 1.00108 0.25022
1005.97 6.94363e-09 1.00108 0.250582
1005.96 6.93962e-09 1.00108 0.249975
1005.98 7.07318e-09 1.00108 0.25237
1006.6 7.08721e-09 1.00109 0.251796
1000 0 1.00082 0.252713
1000 0 1.00082 0.252683
1000 0 1.00082 0.252651
1006.5 7.0844e-09 1.00108 0.251944
1000 0 1.00082 0.252604
1006.44 7.07566e-09 1.00108 0.25199
1000 0 1.00082 0.252563
1006.25 7.22499e-09 1.00107 0.252053
1006.22 7.22051e-09 1.00107 0.252148
1006.01 7.00246e-09 1.00108 0.251426
1006.01 6.99869e-09 1.00108 0.251282
1006.18 7.19719e-09 1.00107 0.252151
1000 0 1.00082 0.252583
1006.11 7.20076e-09 1.00107 0.25214
1006.02 6.99272e-09 1.00108 0.251197
1006.02 6.99926e-09 1.00108 0.251376
1005.89 6.84904e-09 1.00107 0.250584
1006.02 7.00109e-09 1.00108 0.251439
1005.9 6.85689e-09 1.00107 0.250661
1006.01 6.99519e-09 1.00108 0.251187
1005.89 6.84358e-09 1.00107 0.250528
1005.9 6.8534e-09 1.00107 0.250646
1005.9 6.87325e-09 1.00107 0.250055
1005.9 6.86133e-09 1.00107 0.250643
1005.91 6.87666e-09 1.00107 0.250046
1006.17 7.19296e-09 1.00107 0.252119
1006.21 7.20701e-09 1.00101 0.252152
1006.02 7.00185e-09 1.00108 0.251303
1006.01 7.00321e-09 1.00108 0.251417
1000 0 1.00082 0.252536
1006.34 7.08597e-09 1.00102 0.251925
1006.06 7.07689e-09 1.00109 0.251724
1006.02 7.019e-09 1.00109 0.251394
1005.9 6.86239e-09 1.00107 0.250516
1005.92 6.88478e-09 1.00108 0.250672
1005.94 6.91452e-09 1.00108 0.250835
1005.94 6.90734e-09 1.00107 0.250049
1006.41 7.06689e-09 1.00108 0.251892
1006.03 7.08019e-09 1.00108 0.252378
1006.02 6.99442e-09 1.00108 0.251222
1006.02 6.9996e-09 1.00108 0.25139
1005.89 6.8522e-09 1.00107 0.250651
1005.89 6.85745e-09 1.00107 0.250606
1006.36 7.07708e-09 1.00108 0.251821
1006.05 7.07984e-09 1.00109 0.251976
1005.95 6.92905e-09 1.00108 0.251228
1005.91 6.8724e-09 1.00107 0.250587
1005.91 6.87455e-09 1.00107 0.249959
1005.95 6.92359e-09 1.00108 0.250129
1005.93 6.89443e-09 1.00107 0.249944
1005.93 6.90175e-09 1.00107 0.249309
1006.03 7.07895e-09 1.00108 0.252315
1005.96 6.94002e-09 1.00108 0.252151
1006.01 7.07564e-09 1.00108 0.252532
1005.89 6.84924e-09 1.00107 0.250607
1005.89 6.85224e-09 1.00107 0.250658
1005.9 6.86431e-09 1.00107 0.250194
1005.9 6.86541e-09 1.00107 0.250006
1005.92 6.88278e-09 1.00107 0.249852
1005.9 6.86311e-09 1.00107 0.249515
1006.04 7.08234e-09 1.00109 0.25218
1005.92 6.88704e-09 1.00107 0.249285
1005.96 6.93617e-09 1.00108 0.251725
1005.97 6.93829e-09 1.00108 0.250402
1005.95 6.92079e-09 1.00108 0.249335
1005.93 6.8887e-09 1.00107 0.248623
1006 7.07369e-09 1.00108 0.25265
1005.96 6.93854e-09 1.00108 0.252161
1005.96 6.94011e-09 1.00108 0.25227
1005.98 6.9548e-09 1.00108 0.251759
1006.02 7.00932e-09 1.00108 0.251427
1006.47 7.04255e-09 1.00108 0.251874
1006.38 7.01717e-09 1.00108 0.252001
1006.03 7.08488e-09 1.00108 0.252459
1006.04 7.04889e-09 1.00108 0.251578
1005.92 6.87993e-09 1.00107 0.250573
1006.05 7.08904e-09 1.00109 0.252084
1005.96 6.93721e-09 1.00108 0.251394
1005.94 6.91661e-09 1.00108 0.251092
1005.96 6.93546e-09 1.00108 0.250526
1006.51 7.0607e-09 1.00109 0.25185
1006.04 7.08393e-09 1.00109 0.252306
1006.02 7.08089e-09 1.00108 0.25252
1005.96 6.94384e-09 1.00108 0.252154
1005.91 6.86741e-09 1.00107 0.250591
1005.93 6.89466e-09 1.00108 0.250713
1005.93 6.90615e-09 1.00107 0.249865
1005.96 6.94253e-09 1.00108 0.251728
1005.96 6.92925e-09 1.00108 0.250263
1005.98 6.94425e-09 1.00108 0.25056
1005.96 6.93979e-09 1.00108 0.25003
1006.56 7.07084e-09 1.00109 0.251832
1006.01 7.07953e-09 1.00108 0.252537
1005.96 6.94272e-09 1.00108 0.252049
1005.96 6.94359e-09 1.00108 0.252374
1005.99 6.95832e-09 1.00108 0.251628
1005.92 6.91968e-09 1.00107 0.249966
1005.94 6.93099e-09 1.00108 0.249864
1005.92 6.84083e-09 1.00107 0.249115
1005.98 6.95072e-09 1.00108 0.250905
1005.95 6.93212e-09 1.00108 0.249332
1005.97 6.97439e-09 1.00108 0.249793
1005.99 7.07525e-09 1.00108 0.252428
1005.97 6.94048e-09 1.00108 0.252826
1005.96 7.07012e-09 1.00108 0.252334
1005.98 7.07193e-09 1.00108 0.252378
1006.64 7.10342e-09 1.00103 0.252011
1006.6 7.09036e-09 1.00106 0.251947
1000 0 1.00093 0.252256
1000 0 1.00082 0.252708
1000 0 1.00082 0.252678
1006.55 7.1036e-09 1.00109 0.251883
1000 0 1.00082 0.252638
1006.49 7.08852e-09 1.00108 0.251966
1000 0 1.00082 0.252608
1006.45 7.07092e-09 1.00108 0.251973
1000 0 1.00082 0.252568
1006.01 7.00355e-09 1.00108 0.251428
1006.02 7.00186e-09 1.00108 0.251376
1005.9 6.8567e-09 1.00107 0.25066
1005.89 6.84872e-09 1.00107 0.250578
1006.01 6.99534e-09 1.00108 0.251198
1006.18 7.18933e-09 1.00107 0.252126
1006.02 6.99235e-09 1.00108 0.251184
1005.89 6.84386e-09 1.00107 0.250526
1005.9 6.85366e-09 1.00107 0.250642
1005.9 6.87332e-09 1.00107 0.250006
1005.9 6.8616e-09 1.00107 0.250636
1005.91 6.87656e-09 1.00107 0.250047
1005.89 6.84137e-09 1.00107 0.250526
1005.9 6.88313e-09 1.00107 0.250012
1005.9 6.87165e-09 1.00107 0.250038
1005.89 6.83062e-09 1.00107 0.24954
1005.91 6.87943e-09 1.00107 0.250042
1005.9 6.85918e-09 1.00107 0.249363
1006.01 6.99707e-09 1.00108 0.251221
1006.02 7.00188e-09 1.00108 0.251378
1005.89 6.85185e-09 1.00107 0.250624
1005.9 6.85723e-09 1.00107 0.250642
1006.37 7.07073e-09 1.00108 0.251774
1006.05 7.08248e-09 1.00109 0.251958
1005.95 6.92867e-09 1.00108 0.251278
1005.91 6.87202e-09 1.00107 0.2506
1005.91 6.8745e-09 1.00107 0.249907
1005.93 6.89423e-09 1.00107 0.249946
1005.95 6.92308e-09 1.00108 0.250077
1005.93 6.9013e-09 1.00107 0.249277
1006.03 7.08092e-09 1.00108 0.252311
1005.96 6.93972e-09 1.00108 0.252169
1006.01 7.07753e-09 1.00108 0.252482
1005.89 6.84955e-09 1.00107 0.250587
1005.89 6.85248e-09 1.00107 0.250646
1005.9 6.86429e-09 1.00107 0.250165
1005.9 6.86523e-09 1.00107 0.25002
1006.04 7.08e-09 1.00109 0.252193
1005.96 6.93599e-09 1.00108 0.251726
1005.97 6.93862e-09 1.00108 0.25044
1005.92 6.88276e-09 1.00107 0.249898
1005.9 6.86288e-09 1.00107 0.249467
1005.95 6.9215e-09 1.00108 0.249284
1005.92 6.88706e-09 1.00107 0.249297
1005.93 6.88861e-09 1.00107 0.248571
1005.96 6.93867e-09 1.00108 0.25216
1005.98 6.95496e-09 1.00108 0.25176
1006 7.07199e-09 1.00108 0.252609
1005.96 6.94001e-09 1.00108 0.252299
1005.9 6.8666e-09 1.00107 0.250149
1005.9 6.87835e-09 1.00107 0.250117
1005.9 6.87459e-09 1.00107 0.249716
1005.9 6.87432e-09 1.00107 0.249439
1005.91 6.87923e-09 1.00107 0.249294
1005.9 6.87028e-09 1.00107 0.249035
1005.96 6.93764e-09 1.00108 0.25206
1005.92 6.87988e-09 1.00107 0.248485
1005.98 6.9476e-09 1.00108 0.251016
1005.96 6.95452e-09 1.00108 0.249573
1005.94 6.88589e-09 1.00107 0.24852
1005.92 6.89578e-09 1.00107 0.247916
1005.99 7.07028e-09 1.00108 0.252621
1005.96 6.93827e-09 1.00108 0.252507
1005.98 6.9534e-09 1.00108 0.251847
1005.99 6.95688e-09 1.00108 0.251752
1005.98 6.95798e-09 1.00108 0.251611
1006.52 7.05732e-09 1.00108 0.251822
1005.91 6.86717e-09 1.00107 0.250584
1006.02 7.08271e-09 1.00108 0.25258
1006.04 7.08608e-09 1.00109 0.252311
1005.96 6.94395e-09 1.00108 0.252145
1005.93 6.89391e-09 1.00108 0.250713
1005.93 6.90588e-09 1.00107 0.249861
1005.96 6.94227e-09 1.00108 0.251728
1005.97 6.94363e-09 1.00108 0.250525
1005.96 6.92897e-09 1.00108 0.250306
1005.96 6.93962e-09 1.00108 0.250089
1006.55 7.07417e-09 1.00109 0.251811
1006.01 7.07791e-09 1.00108 0.252564
1005.96 6.94285e-09 1.00108 0.252051
1005.96 6.94325e-09 1.00108 0.252382
1005.99 6.95786e-09 1.00108 0.251608
1005.92 6.92073e-09 1.00107 0.249965
1005.94 6.93115e-09 1.00108 0.249849
1005.92 6.84162e-09 1.00107 0.249073
1005.98 6.95043e-09 1.00108 0.250917
1005.95 6.93181e-09 1.00108 0.249422
1005.97 6.97442e-09 1.00108 0.249815
1006 7.07757e-09 1.00108 0.252493
1005.96 6.94228e-09 1.00108 0.252607
1005.98 6.9549e-09 1.00108 0.251425
1005.99 6.95725e-09 1.00108 0.251783
1005.98 6.96626e-09 1.00108 0.251247
1005.89 6.63025e-09 1.00107 0.249467
1005.93 6.87495e-09 1.00107 0.248811
1005.92 6.94423e-09 1.00107 0.247961
1005.98 6.99451e-09 1.00108 0.25002
1005.94 6.83413e-09 1.00108 0.248875
1005.99 7.07396e-09 1.00108 0.252436
1005.96 6.94108e-09 1.00108 0.252779
1005.96 6.94039e-09 1.00108 0.252825
1005.99 6.95982e-09 1.00108 0.252528
1005.97 6.93952e-09 1.00108 0.252821
1005.95 7.06596e-09 1.00108 0.252324
1005.96 7.069e-09 1.00108 0.252339
1006.67 7.12452e-09 1.00103 0.251992
1005.98 7.07318e-09 1.00108 0.252386
1006.64 7.10647e-09 1.00103 0.25206
1000 0 1.00093 0.252265
1006.6 7.08721e-09 1.00103 0.25205
1000 0 1.00088 0.252404
1000 0 1.00082 0.252704
1006.59 7.12374e-09 1.00109 0.251835
1006.54 7.10744e-09 1.00109 0.251909
1000 0 1.00082 0.252666
1000 0 1.00082 0.252643
1006.5 7.0844e-09 1.00108 0.251977
1000 0 1.00082 0.252613
1005.9 6.86133e-09 1.00107 0.250629
1005.9 6.8534e-09 1.00107 0.25064
1005.91 6.87666e-09 1.00107 0.250048
1005.9 6.87325e-09 1.00107 0.249957
1005.89 6.84358e-09 1.00107 0.250523
1006.01 6.99519e-09 1.00108 0.251179
1005.89 6.84181e-09 1.00107 0.250525
1005.9 6.88335e-09 1.00107 0.250036
1005.9 6.87162e-09 1.00107 0.250041
1005.89 6.83085e-09 1.00107 0.249461
1005.91 6.87945e-09 1.00107 0.250037
1005.9 6.85928e-09 1.00107 0.249321
1005.9 6.90937e-09 1.00107 0.250117
1005.89 6.77628e-09 1.00107 0.249652
1005.9 6.86323e-09 1.00107 0.249331
1005.91 6.87537e-09 1.00107 0.249094
1005.91 6.88189e-09 1.00107 0.24947
1005.9 6.82039e-09 1.00107 0.248759
1005.89 6.84924e-09 1.00107 0.250564
1005.89 6.85224e-09 1.00107 0.250635
1005.9 6.86431e-09 1.00107 0.250135
1005.9 6.86541e-09 1.00107 0.250034
1006.04 7.08234e-09 1.00109 0.252204
1005.96 6.93617e-09 1.00108 0.251724
1005.97 6.93829e-09 1.00108 0.250475
1005.92 6.88278e-09 1.00107 0.249944
1005.9 6.86311e-09 1.00107 0.249418
1005.92 6.88704e-09 1.00107 0.249308
1005.95 6.92079e-09 1.00108 0.249236
1005.93 6.8887e-09 1.00107 0.248512
1005.96 6.93854e-09 1.00108 0.252163
1005.98 6.9548e-09 1.00108 0.251766
1006 7.07369e-09 1.00108 0.252569
1005.96 6.94011e-09 1.00108 0.252331
1005.9 6.86695e-09 1.00107 0.250155
1005.9 6.87881e-09 1.00107 0.25012
1005.9 6.8754e-09 1.00107 0.249724
1005.9 6.8753e-09 1.00107 0.249472
1005.96 6.93753e-09 1.00108 0.252064
1005.98 6.94749e-09 1.00108 0.251076
1005.97 6.95533e-09 1.00108 0.249535
1005.91 6.88e-09 1.00107 0.249337
1005.9 6.87166e-09 1.00107 0.249034
1005.94 6.88654e-09 1.00107 0.248512
1005.92 6.88104e-09 1.00107 0.248486
1005.92 6.89636e-09 1.00107 0.247936
1005.98 6.9531e-09 1.00108 0.251853
1005.98 6.95785e-09 1.00108 0.251609
1005.99 6.95674e-09 1.00108 0.251742
1005.99 7.06882e-09 1.00108 0.252598
1005.96 6.93814e-09 1.00108 0.252529
1005.89 6.79871e-09 1.00107 0.249664
1005.89 6.78859e-09 1.00107 0.249446
1005.89 6.80217e-09 1.00107 0.248872
1005.89 6.82121e-09 1.00107 0.248627
1005.98 6.95181e-09 1.00108 0.251653
1005.9 6.8328e-09 1.00107 0.247178
1005.98 6.98277e-09 1.00108 0.250288
1005.95 6.8474e-09 1.00108 0.248613
1005.94 6.94358e-09 1.00107 0.247705
1005.97 7.06559e-09 1.00108 0.252562
1005.96 6.93374e-09 1.00108 0.252668
1005.99 6.96376e-09 1.00108 0.251953
1005.98 6.9606e-09 1.00108 0.251656
1005.98 6.96644e-09 1.00108 0.251382
1005.98 6.95574e-09 1.00108 0.25156
1006.56 7.07084e-09 1.00109 0.251789
1006.01 7.07953e-09 1.00108 0.252585
1005.92 6.91968e-09 1.00107 0.249965
1005.96 6.94359e-09 1.00108 0.252386
1005.96 6.94272e-09 1.00108 0.252058
1005.99 6.95832e-09 1.00108 0.25159
1005.94 6.93099e-09 1.00108 0.249837
1005.92 6.84083e-09 1.00107 0.249036
1005.98 6.95072e-09 1.00108 0.250935
1005.97 6.97439e-09 1.00108 0.249831
1005.95 6.93212e-09 1.00108 0.249503
1006 7.07615e-09 1.00108 0.252503
1005.96 6.94195e-09 1.00108 0.252633
1005.98 6.95455e-09 1.00108 0.251429
1005.99 6.95685e-09 1.00108 0.251788
1005.98 6.96619e-09 1.00108 0.251214
1005.89 6.62639e-09 1.00107 0.249431
1005.93 6.8765e-09 1.00107 0.248832
1005.92 6.94188e-09 1.00107 0.247901
1005.98 6.9944e-09 1.00108 0.249991