# vtk DataFile Version 2.0
Wound Healing Simulation
ASCII
DATASET UNSTRUCTURED_GRID
POINTS 3012 float
69.9759 18.75 4
67.2507 60.3285 4
69.976 18.75 2
73.0099 25.446 4
71.1327 20.9142 4
68.6801 16.6661 4
67.8252 19.9261 3.98185
67.2507 60.3286 2
71.1327 54.0858 4
68.6801 58.3339 4
65.6939 62.2254 4
65.3116 59.0008 3.98067
74.6784 42.3946 4
73.7221 47.2057 4
69.9759 18.75 0
73.0099 25.446 2
68.6801 16.6661 2
71.1327 20.9142 2
67.8257 19.9292 2
74.6792 32.6053 4
73.7222 27.7943 4
72.1454 23.1494 4
70.6138 26.2209 3.98125
68.8854 21.958 3.98219
67.2507 14.6715 4
66.6366 17.9722 3.9809
65.7955 21.0262 3.97176
67.2507 60.3285 0
71.1327 54.0858 2
68.6801 58.3339 2
65.694 62.2255 2
65.3128 58.9972 2
72.1454 51.8506 4
69.9759 56.25 4
68.836 53.1129 3.98119
64.0165 64.0165 4
66.6103 57.1335 3.98135
63.8851 60.7655 3.9819
63.4983 57.7688 3.97218
60.3285 67.2507 4
74.6792 42.3947 2
73.7222 47.2057 2
74.9194 39.9526 4
74.2788 44.8158 4
72.168 42.0854 3.98054
73.0099 49.554 4
71.249 46.5979 3.98036
73.0099 25.446 0
71.1327 20.9142 0
68.6801 16.6661 0
67.8252 19.9261 0.0181465
74.6792 32.6053 2
73.7222 27.7943 2
67.2508 14.6715 2
72.1455 23.1494 2
70.6138 26.2213 2
66.6375 17.976 2
68.8857 21.96 2
65.7949 21.027 2
74.9197 35.0474 4
74.2794 30.1841 4
72.1846 32.9432 3.98092
71.2779 28.4313 3.98074
69.8152 24.0595 3.9819
68.3453 26.9518 3.97042
66.761 22.9339 3.97115
65.694 12.7746 4
65.3229 16.1041 3.98049
64.7117 19.1968 3.97255
63.8828 22.0387 3.96781
71.1327 54.0858 0
65.6939 62.2254 0
68.6801 58.3339 0
65.3116 59.0008 0.0193316
72.1455 51.8506 2
69.9759 56.25 2
68.8362 53.111 2
64.0165 64.0165 2
66.6112 57.13 2
63.8867 60.7623 2
63.4978 57.7687 2
62.2254 65.694 4
58.8944 65.4141 3.99042
69.7686 50.9888 3.98105
67.7833 55.1671 3.98126
66.6477 52.2082 3.97009
62.3357 62.4273 3.98568
64.6591 56.0299 3.97226
62.2004 59.4002 3.97169
61.8179 56.675 3.96884
58.3339 68.6801 4
60.3285 67.2508 2
73.7221 47.2057 0
74.6784 42.3946 0
74.9197 39.9526 2
74.2794 44.8159 2
72.1675 42.0855 2
73.0099 49.554 2
71.2489 46.5978 2
75 37.5 4
72.4052 39.8021 3.98104
71.7823 44.3527 3.98061
69.8027 41.7891 3.97013
70.5748 48.8134 3.98063
68.9108 46.014 3.96978
74.6792 32.6053 0
73.7222 27.7943 0
67.2507 14.6715 0
72.1454 23.1494 0
70.6138 26.2209 0.0187518
68.8854 21.958 0.0178076
66.6366 17.9722 0.0191049
65.7955 21.0262 0.0282356
74.9197 35.0474 2
74.2794 30.1841 2
72.1842 32.9436 2
71.2778 28.4317 2
65.694 12.7745 2
65.3242 16.108 2
69.8153 24.0606 2
68.3452 26.9523 2
64.7112 19.1974 2
66.7606 22.9346 2
63.8822 22.0391 2
72.4131 35.2241 3.98113
71.8037 30.6762 3.98098
69.8388 33.2684 3.97052
68.9646 29.0384 3.9703
67.6097 24.9125 3.97065
66.1906 27.6362 3.96755
64.0165 10.9835 4
64.7526 23.8325 3.96783
63.8895 14.3278 3.98312
63.5106 17.4509 3.97209
62.902 20.3252 3.96766
62.0743 22.9523 3.96706
60.6836 11.0983 3.98684
57.6115 11.4513 3.97843
72.1454 51.8506 0
69.9759 56.25 0
68.836 53.1129 0.0188062
64.0165 64.0165 0
63.8851 60.7655 0.0181016
66.6103 57.1335 0.0186459
63.4983 57.7688 0.0278241
62.2255 65.694 2
58.8956 65.4135 2
69.7686 50.9879 2
67.7838 55.1642 2
66.6473 52.2075 2
62.3375 62.4251 2
64.6586 56.0296 2
62.1999 59.4006 2
61.8174 56.6751 2
60.6684 63.9768 3.98803
57.0255 66.7347 3.99148
57.5574 63.6898 3.9812
67.5059 50.1758 3.96968
65.7002 54.1721 3.97093
64.5335 51.382 3.96664
60.7718 60.9346 3.97641
62.8154 55.0633 3.96741
60.6523 58.1495 3.96582
60.3199 55.7749 3.96777
56.25 69.9759 4
58.3339 68.6801 2
60.3285 67.2507 0
58.9209 9.6565 3.98809
62.2254 9.30607 4
73.0099 49.554 0
74.2788 44.8158 0
71.249 46.5979 0.0196362
72.168 42.0854 0.019464
74.9194 39.9526 0
75 37.5 2
72.4052 39.8023 2
71.7822 44.3525 2
69.8023 41.7888 2
70.5747 48.8132 2
68.9107 46.0135 2
72.4886 37.5119 3.98084
70.04 39.657 3.97026
69.429 43.9068 3.97003
67.5926 41.4962 3.96811
68.2644 48.1062 3.96962
66.7031 45.4374 3.9674
74.9197 35.0474 0
74.2794 30.1841 0
72.1846 32.9432 0.0190829
71.2779 28.4313 0.0192638
65.694 12.7746 0
65.3229 16.1041 0.0195133
69.8152 24.0595 0.0180955
68.3453 26.9518 0.0295788
66.761 22.9339 0.0288505
64.7117 19.1968 0.0274512
63.8828 22.0387 0.0321883
72.413 35.2242 2
71.8037 30.6766 2
69.8383 33.2687 2
68.9646 29.0388 2
64.0165 10.9835 2
63.8914 14.331 2
63.51 17.4516 2
67.6095 24.9131 2
66.1906 27.6365 2
62.9013 20.3255 2
64.7522 23.8329 2
62.0735 22.9525 2
60.6856 11.1004 2
57.6123 11.4502 2
70.0568 35.3918 3.97045
69.4658 31.1496 3.97033
67.6523 33.5914 3.96809
66.7679 29.624 3.96761
65.5202 25.7012 3.96767
64.1101 28.2634 3.96943
62.3413 12.6554 3.98556
62.8331 24.646 3.96795
62.1969 15.7895 3.97387
61.8064 18.6927 3.967
61.2019 21.3518 3.96555
60.3785 23.7446 3.96857
59.2454 12.7831 3.97703
55.874 10.2364 3.98125
56.4038 13.1235 3.97486
69.7686 50.9888 0.0189497
62.2254 65.694 0
58.8944 65.4141 0.00958043
67.7833 55.1671 0.0187444
66.6477 52.2082 0.0299091
62.3357 62.4273 0.0143247
62.2004 59.4002 0.0283091
64.6591 56.0299 0.0277354
61.8179 56.675 0.0311621
60.67 63.9754 2
57.0263 66.7344 2
57.5575 63.6914 2
67.5056 50.1751 2
65.6996 54.1714 2
64.5331 51.3817 2
60.7718 60.9358 2
62.8149 55.0633 2
60.652 58.1497 2
60.3195 55.7748 2
55.0713 67.9316 3.992
59.2183 62.3632 3.97777
55.8045 64.9089 3.98485
56.3253 62.0843 3.97601
65.3266 49.4053 3.96674
63.7015 53.2885 3.96689
62.4105 50.6403 3.96691
59.3298 59.55 3.97059
61.068 54.2994 3.96642
59.2772 56.9957 3.96384
59.2308 55.1682 3.96593
48.1023 68.5777 3.98757
50.949 69.9312 3.99218
54.0858 71.1327 4
56.25 69.976 2
58.3339 68.6801 0
57.0584 8.33628 3.9894
60.3285 7.74928 4
58.9228 9.6578 2
62.2255 9.30602 2
70.5748 48.8134 0.019372
71.7823 44.3527 0.0193927
68.9108 46.014 0.0302189
69.8027 41.7891 0.0298713
72.4052 39.8021 0.0189567
75 37.5 0
72.4882 37.5121 2
70.04 39.6569 2
69.4289 43.9064 2
67.5924 41.496 2
68.2643 48.1056 2
66.7028 45.4371 2
70.1282 37.5213 3.97054
67.8315 39.5115 3.96828
67.2169 43.4679 3.96773
65.508 41.2046 3.97125
66.0625 47.4152 3.9671
64.6036 44.8392 3.96971
72.4131 35.2241 0.0188684
71.8037 30.6762 0.0190163
69.8388 33.2684 0.0294829
68.9646 29.0384 0.0297019
64.0165 10.9835 0
63.8895 14.3278 0.0168778
63.5106 17.4509 0.0279109
67.6097 24.9125 0.0293539
66.1906 27.6362 0.0324526
64.7526 23.8325 0.0321678
62.902 20.3252 0.0323433
62.0743 22.9523 0.0329448
60.6836 11.0983 0.0131599
57.6115 11.4513 0.0215698
70.0567 35.392 2
69.4657 31.15 2
67.6521 33.5915 2
66.768 29.6243 2
62.3432 12.6583 2
62.1967 15.7892 2
61.8057 18.6928 2
65.5199 25.7015 2
64.1094 28.2637 2
61.2012 21.352 2
62.8326 24.6462 2
60.3784 23.7451 2
59.2459 12.7827 2
56.4043 13.122 2
55.8746 10.2352 2
67.8679 35.5476 3.96825
67.2615 31.6232 3.96789
65.6606 33.93 3.97125
64.6228 30.1988 3.96998
63.509 26.4226 3.96881
62.1815 28.7923 3.97308
60.7744 14.2274 3.97681
60.9893 25.3544 3.97036
60.6061 17.1381 3.96858
60.2061 19.8288 3.96433
59.6138 22.2774 3.96595
58.9056 24.3445 3.97104
54.0373 9.13809 3.98294
57.9082 14.3411 3.97577
54.7858 12.0193 3.97593
55.3092 14.6617 3.97366
67.5059 50.1758 0.0303214
57.0255 66.7347 0.00852474
60.6684 63.9768 0.0119656
57.5574 63.6898 0.0188006
65.7002 54.1721 0.0290667
64.5335 51.382 0.033364
60.7718 60.9346 0.0235879
60.6523 58.1495 0.034182
62.8154 55.0633 0.0325923
60.3199 55.7749 0.0322259
55.0718 67.9316 2
59.2183 62.3645 2
55.8044 64.9099 2
56.325 62.086 2
65.3264 49.4049 2
63.7009 53.2883 2
62.4107 50.6401 2
59.3293 59.5517 2
61.0678 54.2992 2
59.2769 56.9955 2
59.2307 55.1679 2
53.0432 68.9994 3.99208
53.9669 66.0121 3.98638
57.8781 60.8635 3.97529
54.6834 63.2042 3.98037
55.2087 60.6043 3.97538
63.1542 48.6494 3.96796
61.7218 52.5644 3.96646
60.2026 49.9976 3.96879
58.0094 58.2497 3.96811
59.3083 53.9309 3.96729
58.1031 55.7926 3.96445
50.109 67.8559 3.98735
47.463 66.5786 3.98427
46.0559 69.1568 3.98771
48.1023 68.5783 2
48.8031 70.7225 3.99228
50.9494 69.9313 2
51.8506 72.1454 4
54.0858 71.1327 2
56.25 69.9759 0
55.1031 7.14069 3.9907
58.3339 6.31992 4
57.0599 8.33693 2
60.3286 7.74926 2
58.9209 9.6565 0.011907
62.2254 9.30607 0
68.2644 48.1062 0.0303818
69.429 43.9068 0.0299725
66.7031 45.4374 0.0326027
67.5926 41.4962 0.031887
70.04 39.657 0.029743
72.4886 37.5119 0.0191551
70.1279 37.5213 2
67.8314 39.5114 2
67.2173 43.4677 2
65.5071 41.2044 2
66.0625 47.4149 2
64.6026 44.8389 2
67.9285 37.5217 3.96844
65.7441 39.3671 3.9716
65.1285 43.0181 3.97058
63.6586 40.9208 3.9751
63.9178 46.7058 3.96884
62.7127 44.2009 3.97357
70.0568 35.3918 0.0295488
69.4658 31.1496 0.02967
67.6523 33.5914 0.0319121
66.7679 29.624 0.0323868
62.3413 12.6554 0.0144392
62.1969 15.7895 0.0261269
61.8064 18.6927 0.0329966
65.5202 25.7012 0.0323312
64.1101 28.2634 0.0305744
62.8331 24.646 0.0320509
61.2019 21.3518 0.0344463
60.3785 23.7446 0.0314295
59.2454 12.7831 0.0229747
56.4038 13.1235 0.025137
55.874 10.2364 0.0187508
67.8678 35.5477 2
67.2617 31.6234 2
65.6601 33.9301 2
64.6222 30.199 2
60.7743 14.2275 2
60.606 17.1372 2
60.2057 19.8288 2
63.5085 26.4229 2
62.1802 28.7927 2
59.6159 22.2777 2
60.989 25.3549 2
58.9047 24.3453 2
57.908 14.3403 2
55.3094 14.6614 2
54.0378 9.13682 2
54.7863 12.0174 2
65.8345 35.6677 3.97132
65.1427 32.1593 3.97059
64.2101 34.2537 3.97533
62.4964 30.6489 3.97381
61.5822 27.0885 3.97146
60.7415 29.1593 3.97671
59.3074 15.6772 3.97335
59.2378 25.8212 3.97409
59.1096 18.3715 3.96641
58.7089 20.8734 3.96343
58.212 23.1188 3.9664
57.8768 24.6943 3.97288
52.1121 8.15528 3.98482
53.0576 11.0231 3.97857
56.6718 15.7561 3.975
53.8072 13.6942 3.97546
54.3697 16.0176 3.9752
55.0713 67.9316 0.00800333
65.3266 49.4053 0.0332564
55.8045 64.9089 0.015148
59.2183 62.3632 0.0222344
56.3253 62.0843 0.0239868
63.7015 53.2885 0.0331149
62.4105 50.6403 0.0330947
59.3298 59.55 0.0294078
59.2772 56.9957 0.0361604
61.068 54.2994 0.0335767
59.2308 55.1682 0.0340712
53.0437 68.9994 2
53.9669 66.0128 2
57.8776 60.8651 2
54.683 63.2052 2
55.2085 60.6059 2
63.1539 48.6491 2
61.7228 52.5644 2
60.2021 49.997 2
58.009 58.2512 2
59.3097 53.9307 2
58.1022 55.792 2
52.0703 66.9989 3.98708
52.9534 64.2162 3.98283
56.6433 59.4786 3.97433
53.6795 61.6165 3.97726
[...]
POINT_DATA 3012
SCALARS rho_c_phif_kappa float 4
LOOKUP_TABLE default
1000 0 1.00138 0.260026
1000 0 1.00117 0.260321
1000 0 1.00138 0.259871
1000 0 1.00137 0.260246
1000 0 1.00138 0.260034
1000 0 1.00138 0.260089
1008.27 9.30863e-09 1.00155 0.259352
1000 0 1.00117 0.260351
1000 0 1.00117 0.260305
1000 0 1.00117 0.260221
1000 0 1.00138 0.259761
1008.25 9.14792e-09 1.00166 0.259317
1000 0 1.00137 0.260376
1000 0 1.00137 0.260735
1000 0 1.00138 0.259699
1000 0 1.00137 0.26037
1000 0 1.00138 0.259837
1000 0 1.00138 0.259985
1008.27 9.32659e-09 1.00155 0.259462
1000 0 1.00117 0.260545
1000 0 1.00137 0.260344
1000 0 1.00137 0.26012
1008.22 9.3926e-09 1.00154 0.259771
1008.25 9.34383e-09 1.00154 0.259479
1000 0 1.00138 0.260166
1008.29 9.27279e-09 1.00155 0.259199
1008.47 9.81711e-09 1.0017 0.258358
1000 0 1.00117 0.260435
1000 0 1.00127 0.260132
1000 0 1.00127 0.260021
1000 0 1.00117 0.260498
1008.29 9.16943e-09 1.00166 0.259315
1000 0 1.00137 0.259999
1000 0 1.00138 0.259678
1008.26 9.35632e-09 1.00155 0.2594
1000 0 1.00117 0.260423
1008.24 9.2121e-09 1.00155 0.259466
1008.29 9.11414e-09 1.00166 0.259481
1008.5 9.83925e-09 1.0017 0.258423
1000 0 1.00117 0.260783
1000 0 1.00117 0.260541
1000 0 1.00127 0.260602
1000 0 1.00117 0.260558
1000 0 1.00137 0.260794
1008.18 9.40316e-09 1.00165 0.259864
1000 0 1.00117 0.26076
1008.23 9.42825e-09 1.00155 0.259684
1000 0 1.00137 0.260554
1000 0 1.00138 0.25993
1000 0 1.00138 0.259582
1008.27 9.30863e-09 1.00155 0.259573
1000 0 1.00127 0.260719
1000 0 1.00137 0.2605
1000 0 1.00138 0.259863
1000 0 1.00137 0.260174
1008.12 9.40781e-09 1.00154 0.259713
1008.32 9.29329e-09 1.00155 0.259368
1008.2 9.35941e-09 1.00154 0.259526
1008.47 9.81328e-09 1.0017 0.258263
1000 0 1.00117 0.260579
1000 0 1.00137 0.2604
1008.17 9.38569e-09 1.00154 0.260021
1008.2 9.40102e-09 1.00154 0.259872
1008.24 9.3735e-09 1.00154 0.25962
1008.44 9.78562e-09 1.0017 0.258347
1008.46 9.80461e-09 1.0017 0.258242
1000 0 1.00138 0.260217
1008.33 9.24171e-09 1.00155 0.259102
1008.48 9.83207e-09 1.00171 0.258361
1008.29 9.60871e-09 1.00168 0.256713
1000 0 1.00117 0.260206
1000 0 1.00117 0.260571
1000 0 1.00117 0.260274
1008.25 9.14792e-09 1.00166 0.259313
1000 0 1.00117 0.260288
1000 0 1.00117 0.260157
1008.21 9.37259e-09 1.00165 0.259439
1000 0 1.00127 0.260164
1008.27 9.23239e-09 1.00166 0.25938
1008.31 9.13308e-09 1.00161 0.259487
1008.49 9.83499e-09 1.0017 0.258462
1000 0 1.00117 0.26068
1008.5 9.13462e-09 1.00167 0.259743
1008.26 9.4028e-09 1.00165 0.259589
1008.25 9.2889e-09 1.00165 0.259526
1008.45 9.79563e-09 1.00169 0.258107
1008.35 9.10194e-09 1.00156 0.2596
1008.49 9.82793e-09 1.0017 0.258309
1008.51 9.85238e-09 1.0017 0.258579
1008.33 9.65924e-09 1.00169 0.25732
1000 0 1.00117 0.260828
1000 0 1.00117 0.260784
1000 0 1.00117 0.260454
1000 0 1.00117 0.260552
1000 0 1.00117 0.260558
1000 0 1.00127 0.260666
1008.03 9.41993e-09 1.0016 0.259803
1000 0 1.00127 0.260489
1008.12 9.4448e-09 1.0016 0.259749
1000 0 1.00117 0.260576
1008.15 9.38532e-09 1.00164 0.259869
1008.2 9.41857e-09 1.00155 0.259727
1008.42 9.77392e-09 1.00169 0.258297
1008.25 9.42595e-09 1.00155 0.259571
1008.43 9.77958e-09 1.00169 0.258358
1000 0 1.00137 0.260367
1000 0 1.00137 0.260722
1000 0 1.00138 0.259588
1000 0 1.00137 0.260242
1008.22 9.3926e-09 1.00154 0.259633
1008.25 9.34383e-09 1.00154 0.259571
1008.29 9.27279e-09 1.00155 0.259535
1008.47 9.81711e-09 1.0017 0.258179
1000 0 1.00117 0.260549
1000 0 1.00137 0.260583
1008.04 9.4028e-09 1.00159 0.259829
1008.09 9.41737e-09 1.00154 0.259814
1000 0 1.00127 0.260144
1008.36 9.26214e-09 1.00155 0.25936
1008.16 9.38811e-09 1.00154 0.259599
1008.45 9.78264e-09 1.0017 0.258291
1008.48 9.82764e-09 1.00171 0.258243
1008.46 9.80128e-09 1.0017 0.258231
1008.29 9.60911e-09 1.00168 0.256697
1008.13 9.37769e-09 1.00164 0.259945
1008.18 9.39785e-09 1.00154 0.259918
1008.43 9.77671e-09 1.00169 0.258374
1008.43 9.78053e-09 1.00169 0.258355
1008.45 9.79359e-09 1.0017 0.258227
1008.26 9.56515e-09 1.00168 0.25691
1000 0 1.00117 0.260592
1008.28 9.59104e-09 1.00168 0.256658
1008.37 9.21432e-09 1.00166 0.259275
1008.5 9.85006e-09 1.0017 0.258346
1008.31 9.62899e-09 1.00169 0.256826
1008.28 9.58427e-09 1.00168 0.255305
1008.47 9.18884e-09 1.00167 0.259733
1008.5 9.8696e-09 1.0017 0.259824
1000 0 1.00117 0.260286
1000 0 1.00117 0.260211
1008.26 9.35632e-09 1.00165 0.259478
1000 0 1.00117 0.260645
1008.29 9.11414e-09 1.00166 0.259359
1008.24 9.2121e-09 1.00166 0.259374
1008.5 9.83925e-09 1.0017 0.258492
1000 0 1.00117 0.260718
1008.49 9.14253e-09 1.00167 0.259813
1008.18 9.41791e-09 1.0016 0.259564
1008.24 9.3074e-09 1.0016 0.259483
1008.46 9.79229e-09 1.00169 0.258106
1008.35 9.11587e-09 1.00166 0.259456
1008.48 9.82376e-09 1.0017 0.25835
1008.5 9.84897e-09 1.0017 0.25862
1008.33 9.66016e-09 1.00169 0.257253
1008.42 9.1131e-09 1.00167 0.259579
1008.57 9.15626e-09 1.00167 0.259823
1008.51 9.86729e-09 1.0017 0.259949
1008.44 9.78406e-09 1.00169 0.258178
1008.47 9.81182e-09 1.0017 0.258142
1008.27 9.58917e-09 1.00168 0.256494
1008.51 9.86146e-09 1.0017 0.259154
1008.31 9.63665e-09 1.00169 0.256916
1008.34 9.68045e-09 1.00169 0.257475
1008.31 9.63009e-09 1.00169 0.256009
1000 0 1.00117 0.260833
1000 0 1.00117 0.260802
1000 0 1.00117 0.260762
1008.54 9.1973e-09 1.00167 0.259835
1000 0 1.00117 0.260671
1000 0 1.00117 0.260392
1000 0 1.00117 0.260506
1008.23 9.42825e-09 1.00165 0.259826
1008.18 9.40316e-09 1.00165 0.259915
1000 0 1.00117 0.260575
1000 0 1.00117 0.260568
1008.13 9.40159e-09 1.00164 0.259886
1008.19 9.43469e-09 1.0016 0.2598
1008.45 9.77057e-09 1.00169 0.258298
1008.14 9.44145e-09 1.00165 0.259705
1008.45 9.77637e-09 1.00169 0.258346
1008.15 9.37287e-09 1.00164 0.259898
1008.42 9.76974e-09 1.00169 0.258253
1008.43 9.77783e-09 1.00169 0.258353
1008.25 9.55567e-09 1.00167 0.257062
1008.43 9.78054e-09 1.00169 0.258285
1008.26 9.55855e-09 1.00168 0.256922
1000 0 1.00117 0.260549
1000 0 1.00137 0.260787
1008.17 9.38569e-09 1.00164 0.259893
1008.2 9.40102e-09 1.00154 0.259729
1000 0 1.00117 0.26034
1008.33 9.24171e-09 1.00156 0.259618
1008.24 9.3735e-09 1.00154 0.259572
1008.44 9.78562e-09 1.0017 0.258228
1008.46 9.80461e-09 1.0017 0.258225
1008.48 9.83207e-09 1.00171 0.258123
1008.29 9.60871e-09 1.00168 0.256679
1008.1 9.39411e-09 1.00164 0.259914
1008.17 9.41403e-09 1.00154 0.259855
1008.45 9.7734e-09 1.00169 0.258344
1008.45 9.77738e-09 1.0017 0.258369
1000 0 1.00117 0.260585
1008.38 9.23097e-09 1.00161 0.259416
1008.49 9.84605e-09 1.00171 0.258357
1008.46 9.79057e-09 1.0017 0.258198
1008.26 9.56536e-09 1.00168 0.256807
1008.31 9.62974e-09 1.00169 0.256795
1008.28 9.5913e-09 1.00168 0.256685
1008.28 9.58458e-09 1.00168 0.255319
1008.47 9.20148e-09 1.00167 0.259635
1008.5 9.86682e-09 1.0017 0.259813
1008.43 9.7723e-09 1.00169 0.258291
1008.43 9.77754e-09 1.00169 0.258409
1008.25 9.55668e-09 1.00168 0.257229
1008.25 9.55899e-09 1.00167 0.256809
1008.27 9.57616e-09 1.00168 0.256666
1008.25 9.55109e-09 1.00167 0.255503
1008.42 9.19319e-09 1.00167 0.259539
1008.26 9.57065e-09 1.00168 0.255162
1008.51 9.86497e-09 1.0017 0.258854
1008.33 9.65288e-09 1.00169 0.257126
1008.29 9.60341e-09 1.00168 0.255509
1008.27 9.57913e-09 1.00168 0.254008
1008.5 9.86685e-09 1.0017 0.259574
1008.49 9.87074e-09 1.0017 0.260176
1008.35 9.69963e-09 1.00169 0.259111
1008.26 9.4028e-09 1.00165 0.259607
1000 0 1.00117 0.260729
1008.5 9.13462e-09 1.00167 0.259888
1008.25 9.2889e-09 1.00165 0.259398
1008.45 9.79563e-09 1.00169 0.25811
1008.35 9.10194e-09 1.00166 0.259593
1008.51 9.85238e-09 1.0017 0.258662
1008.49 9.82793e-09 1.0017 0.258383
1008.33 9.65924e-09 1.00169 0.257194
1008.42 9.12392e-09 1.00167 0.259687
1008.56 9.16324e-09 1.00167 0.259836
1008.51 9.86464e-09 1.0017 0.259999
1008.45 9.78103e-09 1.00169 0.258165
1008.47 9.80818e-09 1.0017 0.258161
1008.27 9.58964e-09 1.00168 0.256513
1008.51 9.85794e-09 1.0017 0.259167
1008.31 9.63736e-09 1.00169 0.256958
1008.35 9.68132e-09 1.00169 0.257487
1008.31 9.63027e-09 1.00169 0.255896
1008.64 9.17963e-09 1.00168 0.259786
1008.51 9.86297e-09 1.0017 0.259668
1008.5 9.86818e-09 1.0017 0.260295
1008.36 9.70985e-09 1.0017 0.259311
1008.26 9.57974e-09 1.00168 0.256552
1008.29 9.60882e-09 1.00168 0.256583
1008.26 9.55246e-09 1.00168 0.25469
1008.35 9.69659e-09 1.00169 0.258267
1008.3 9.60595e-09 1.00168 0.255271
1008.33 9.6552e-09 1.00169 0.256116
1008.31 9.61751e-09 1.00169 0.254957
1008.46 9.86862e-09 1.0017 0.260477
1008.76 9.22605e-09 1.00168 0.259655
1000 0 1.00117 0.260845
1000 0 1.00117 0.260817
1000 0 1.00117 0.260786
1008.61 9.22045e-09 1.00168 0.259862
1000 0 1.00117 0.260732
1008.54 9.20758e-09 1.00167 0.259764
1000 0 1.00117 0.260656
1008.25 9.42595e-09 1.00165 0.259729
1008.2 9.41857e-09 1.00165 0.259899
1008.43 9.77958e-09 1.00169 0.258336
1008.42 9.77392e-09 1.00169 0.2583
1008.15 9.38532e-09 1.00164 0.259913
1000 0 1.00117 0.260577
1007.95 9.39061e-09 1.00164 0.259904
1008.42 9.76657e-09 1.00169 0.258254
1008.43 9.77465e-09 1.00169 0.258351
1008.25 9.55584e-09 1.00167 0.257057
1008.45 9.77752e-09 1.00169 0.258268
1008.25 9.5588e-09 1.00168 0.256919
1008.42 9.7691e-09 1.00169 0.258258
1008.25 9.55854e-09 1.00167 0.257115
1008.25 9.55766e-09 1.00167 0.257015
1008.24 9.53621e-09 1.00167 0.255861
1008.26 9.56393e-09 1.00168 0.256736
1008.24 9.55171e-09 1.00167 0.255586
1008.13 9.37769e-09 1.00164 0.259885
1008.18 9.39785e-09 1.00154 0.259778
1008.43 9.77671e-09 1.00169 0.25831
1008.43 9.78053e-09 1.0017 0.258376
1000 0 1.00117 0.260571
1008.37 9.21432e-09 1.00156 0.259426
1008.5 9.85006e-09 1.00171 0.258353
1008.45 9.79359e-09 1.0017 0.258168
1008.26 9.56515e-09 1.00168 0.256699
1008.28 9.59104e-09 1.00168 0.256713
1008.31 9.62899e-09 1.00169 0.25676
1008.28 9.58427e-09 1.00168 0.25533
1008.47 9.18884e-09 1.00167 0.259547
1008.5 9.8696e-09 1.0017 0.259801
1008.43 9.76909e-09 1.00169 0.258273
1008.43 9.77462e-09 1.00169 0.258381
1008.25 9.55686e-09 1.00168 0.257191
1008.25 9.55926e-09 1.00168 0.256904
1008.42 9.20768e-09 1.00167 0.259452
1008.5 9.86106e-09 1.0017 0.258799
1008.33 9.65415e-09 1.00169 0.257185
1008.27 9.57638e-09 1.00168 0.256706
1008.25 9.5511e-09 1.00167 0.255392
1008.29 9.60391e-09 1.00168 0.255383
1008.26 9.57082e-09 1.00168 0.255158
1008.27 9.5793e-09 1.00168 0.253914
1008.5 9.86391e-09 1.0017 0.259609
1008.35 9.7002e-09 1.00169 0.259175
1008.49 9.86783e-09 1.0017 0.260112
1008.25 9.55847e-09 1.00168 0.257213
1008.25 9.55815e-09 1.00168 0.257081
1008.24 9.53963e-09 1.00167 0.256183
1008.24 9.54319e-09 1.00167 0.255403
1008.25 9.55963e-09 1.00167 0.255118
1008.24 9.54493e-09 1.00167 0.2539
1008.51 9.86737e-09 1.0017 0.259307
1008.26 9.56253e-09 1.00168 0.253441
1008.34 9.67825e-09 1.00169 0.257965
1008.31 9.63042e-09 1.00169 0.255538
1008.29 9.58942e-09 1.00168 0.253974
1008.27 9.5756e-09 1.00168 0.252309
1008.48 9.86984e-09 1.0017 0.260451
1008.35 9.69541e-09 1.00169 0.259172
1008.35 9.7025e-09 1.00169 0.259334
1008.36 9.68063e-09 1.0017 0.258617
1008.44 9.78406e-09 1.00169 0.258156
1008.57 9.15626e-09 1.00167 0.259835
1008.42 9.1131e-09 1.00167 0.259813
1008.51 9.86729e-09 1.0017 0.260056
1008.47 9.81182e-09 1.0017 0.258179
1008.27 9.58917e-09 1.00168 0.256528
1008.51 9.86146e-09 1.0017 0.259172
1008.34 9.68045e-09 1.00169 0.257474
1008.31 9.63665e-09 1.00169 0.257005
1008.31 9.63009e-09 1.00169 0.255778
1008.63 9.18596e-09 1.00168 0.259771
1008.51 9.86017e-09 1.0017 0.259674
1008.5 9.86576e-09 1.0017 0.260383
1008.36 9.71001e-09 1.0017 0.259278
1008.26 9.57997e-09 1.00168 0.256564
1008.29 9.60952e-09 1.00168 0.2566
1008.26 9.55247e-09 1.00168 0.254693
1008.36 9.6972e-09 1.00169 0.258284
1008.3 9.60635e-09 1.00168 0.255373
1008.33 9.65547e-09 1.00169 0.255993
1008.31 9.61775e-09 1.00169 0.255009
1008.7 9.20065e-09 1.00168 0.259719
1008.49 9.86758e-09 1.0017 0.260546
1008.36 9.70377e-09 1.00169 0.259014
1008.36 9.7106e-09 1.0017 0.259781
1008.37 9.69297e-09 1.0017 0.258407
1008.25 9.51514e-09 1.00167 0.254828
1008.28 9.59558e-09 1.00168 0.254716
1008.26 9.57272e-09 1.00168 0.252785
1008.36 9.68208e-09 1.00169 0.2568
1008.29 9.59394e-09 1.00168 0.253349
1008.32 9.61728e-09 1.00169 0.254567
1008.47 9.86752e-09 1.0017 0.260534
1008.35 9.70223e-09 1.0017 0.260834
1008.45 9.8696e-09 1.0017 0.260442
1008.46 9.86722e-09 1.0017 0.260485
1008.82 9.25152e-09 1.00158 0.259933
1008.76 9.2321e-09 1.00163 0.259872
1000 0 1.00139 0.260229
1000 0 1.00117 0.260835
1000 0 1.00117 0.260807
1008.69 9.25256e-09 1.00168 0.259868
1000 0 1.00117 0.260773
1008.61 9.22907e-09 1.00168 0.259829
1000 0 1.00117 0.260725
1008.54 9.1973e-09 1.00167 0.259695
1000 0 1.00117 0.260639
1008.43 9.78054e-09 1.00169 0.258253
1008.43 9.77783e-09 1.00169 0.258348
1008.26 9.55855e-09 1.00168 0.256913
1008.25 9.55567e-09 1.00167 0.257051
1008.42 9.76974e-09 1.00169 0.258254
1008.15 9.37287e-09 1.00164 0.259884
1008.45 9.76558e-09 1.00169 0.258256
1008.25 9.55859e-09 1.00167 0.25711
1008.25 9.55786e-09 1.00167 0.257004
1008.24 9.53603e-09 1.00167 0.255761
1008.25 9.5642e-09 1.00168 0.25673
1008.24 9.55167e-09 1.00167 0.255604
1008.25 9.56242e-09 1.00167 0.257147
1008.23 9.51602e-09 1.00167 0.256103
1008.24 9.54088e-09 1.00167 0.255581
1008.24 9.51848e-09 1.00167 0.254868
1008.25 9.54559e-09 1.00167 0.255309
1008.24 9.51614e-09 1.00167 0.253629
1008.43 9.7723e-09 1.00169 0.258261
1008.43 9.77754e-09 1.00169 0.258356
1008.25 9.55668e-09 1.00168 0.257151
1008.25 9.55899e-09 1.00168 0.256997
1008.42 9.19319e-09 1.00167 0.259369
1008.51 9.86497e-09 1.0017 0.258752
1008.33 9.65288e-09 1.00169 0.257253
1008.27 9.57616e-09 1.00168 0.256751
1008.25 9.55109e-09 1.00167 0.25528
1008.26 9.57065e-09 1.00168 0.255154
1008.29 9.60341e-09 1.00168 0.255274
1008.27 9.57913e-09 1.00168 0.253819
1008.5 9.86685e-09 1.0017 0.25964
1008.35 9.69963e-09 1.00169 0.259226
1008.49 9.87074e-09 1.0017 0.260059
1008.25 9.55856e-09 1.00167 0.257185
1008.25 9.55838e-09 1.00168 0.257038
1008.24 9.5394e-09 1.00167 0.256129
1008.24 9.54303e-09 1.00167 0.255457
1008.5 9.86356e-09 1.0017 0.259321
1008.34 9.67834e-09 1.00169 0.257962
1008.32 9.63177e-09 1.00169 0.255635
1008.25 9.55962e-09 1.00168 0.255198
1008.24 9.54465e-09 1.00167 0.253805
1008.29 9.58978e-09 1.00168 0.253867
1008.26 9.56248e-09 1.00168 0.253463
1008.27 9.57552e-09 1.00168 0.252239
1008.35 9.69611e-09 1.00169 0.259155
1008.36 9.68096e-09 1.00169 0.258606
1008.48 9.86754e-09 1.0017 0.260397
1008.35 9.70235e-09 1.00169 0.259399
1008.23 9.51464e-09 1.00167 0.256235
1008.24 9.53923e-09 1.00167 0.25589
1008.24 9.54078e-09 1.00167 0.255211
1008.24 9.54716e-09 1.00167 0.253401
1008.25 9.54902e-09 1.00167 0.253621
1008.24 9.55403e-09 1.00167 0.253027
1008.35 9.69019e-09 1.00169 0.258816
1008.26 9.5739e-09 1.00167 0.251641
1008.34 9.6626e-09 1.00169 0.256448
1008.3 9.60004e-09 1.00169 0.253875
1008.28 9.59918e-09 1.00168 0.252509
1008.26 9.58e-09 1.00168 0.251541
1008.47 9.86886e-09 1.0017 0.260553
1008.35 9.70245e-09 1.00169 0.259755
1008.36 9.67705e-09 1.00169 0.258593
1008.37 9.68936e-09 1.0017 0.258585
1008.36 9.68322e-09 1.00169 0.258323
1008.64 9.17963e-09 1.00168 0.259742
1008.26 9.57974e-09 1.00168 0.256577
1008.5 9.86818e-09 1.0017 0.260491
1008.51 9.86297e-09 1.0017 0.259665
1008.36 9.70985e-09 1.0017 0.259247
1008.29 9.60882e-09 1.00168 0.256611
1008.26 9.55246e-09 1.00168 0.254695
1008.35 9.69659e-09 1.00169 0.258321
1008.33 9.6552e-09 1.00169 0.255834
1008.3 9.60595e-09 1.00168 0.255471
1008.31 9.61751e-09 1.00169 0.255067
1008.7 9.20686e-09 1.00168 0.259694
1008.49 9.86574e-09 1.0017 0.260605
1008.36 9.70459e-09 1.00169 0.259026
1008.35 9.71043e-09 1.0017 0.259787
1008.37 9.69307e-09 1.0017 0.258371
1008.25 9.516e-09 1.00167 0.2548
1008.28 9.59567e-09 1.00168 0.254725
1008.26 9.57349e-09 1.00168 0.252715
1008.35 9.68161e-09 1.00169 0.256844
1008.29 9.59356e-09 1.00168 0.253461
1008.32 9.61766e-09 1.00169 0.254659
1008.48 9.86717e-09 1.0017 0.260582
1008.35 9.70705e-09 1.0017 0.260336
1008.36 9.68963e-09 1.0017 0.257824
1008.38 9.70109e-09 1.0017 0.258799
1008.37 9.68506e-09 1.0017 0.257992
1008.26 9.62178e-09 1.00167 0.253638
1008.26 9.46997e-09 1.00168 0.252267
1008.25 9.65364e-09 1.00168 0.250674
1008.35 9.63719e-09 1.00169 0.255239
1008.29 9.56874e-09 1.00168 0.252729
1008.47 9.86609e-09 1.0017 0.260546
1008.35 9.70356e-09 1.00169 0.260795
1008.35 9.70232e-09 1.0017 0.260828
1008.38 9.69324e-09 1.0017 0.260278
1008.34 9.7006e-09 1.0017 0.260816
1008.44 9.87061e-09 1.0017 0.260436
1008.45 9.8682e-09 1.0017 0.260445
1008.88 9.28496e-09 1.00158 0.259909
1008.46 9.86862e-09 1.0017 0.260493
1008.82 9.25718e-09 1.00158 0.260026
1000 0 1.00139 0.260224
1008.76 9.22605e-09 1.00157 0.26001
1000 0 1.00128 0.260388
1000 0 1.00117 0.260827
1008.76 9.28589e-09 1.00168 0.259838
1008.69 9.25974e-09 1.00168 0.259849
1000 0 1.00117 0.260795
1000 0 1.00117 0.26078
1008.61 9.22045e-09 1.00168 0.259789
1000 0 1.00117 0.260708
1008.26 9.56393e-09 1.00168 0.256723
1008.25 9.55766e-09 1.00167 0.256999
1008.24 9.55171e-09 1.00167 0.255626
1008.24 9.53621e-09 1.00167 0.255659
1008.25 9.55854e-09 1.00167 0.257105
1008.42 9.7691e-09 1.00169 0.25825
1008.25 9.56272e-09 1.00167 0.257148
1008.23 9.51612e-09 1.00167 0.256156
1008.24 9.54072e-09 1.00167 0.255584
1008.24 9.51829e-09 1.00167 0.25472
1008.25 9.54551e-09 1.00167 0.255292
1008.24 9.51587e-09 1.00167 0.253645
1008.23 9.50139e-09 1.00167 0.256374
1008.24 9.5091e-09 1.00167 0.255387
1008.24 9.53963e-09 1.00167 0.253915
1008.26 9.77909e-09 1.00167 0.253952
1008.25 9.54986e-09 1.00167 0.254139
1008.26 9.68973e-09 1.00167 0.25232
1008.25 9.55847e-09 1.00167 0.257155
1008.25 9.55815e-09 1.00168 0.256994
1008.24 9.53963e-09 1.00167 0.256081
1008.24 9.54319e-09 1.00167 0.255519
1008.51 9.86737e-09 1.0017 0.259327
1008.34 9.67825e-09 1.00169 0.257953
1008.31 9.63042e-09 1.00169 0.255725
1008.25 9.55963e-09 1.00168 0.255277
1008.24 9.54493e-09 1.00167 0.253712
1008.26 9.56253e-09 1.00168 0.253486
1008.29 9.58942e-09 1.00168 0.253735
1008.27 9.5756e-09 1.00168 0.252174
1008.35 9.69541e-09 1.00169 0.259148
1008.36 9.68063e-09 1.00169 0.258602
1008.48 9.86984e-09 1.0017 0.260341
1008.35 9.7025e-09 1.00169 0.259455
1008.23 9.51472e-09 1.00167 0.256239
1008.24 9.53936e-09 1.00167 0.255877
1008.24 9.541e-09 1.00167 0.255204
1008.24 9.54759e-09 1.00167 0.253549
1008.35 9.69058e-09 1.00169 0.258786
1008.34 9.66285e-09 1.00169 0.256584
1008.31 9.601e-09 1.00169 0.253794
1008.25 9.54937e-09 1.00167 0.253732
1008.24 9.55472e-09 1.00167 0.252934
1008.28 9.59927e-09 1.00168 0.252474
1008.26 9.57442e-09 1.00167 0.251651
1008.26 9.58029e-09 1.00168 0.251492
1008.36 9.67672e-09 1.00169 0.258577
1008.36 9.68312e-09 1.00169 0.258288
1008.37 9.68956e-09 1.0017 0.258586
1008.47 9.86702e-09 1.0017 0.260504
1008.35 9.70251e-09 1.00169 0.259801
1008.24 9.57177e-09 1.00167 0.255333
1008.24 9.50952e-09 1.00167 0.254393
1008.23 9.5152e-09 1.00167 0.252178
1008.24 9.56606e-09 1.00167 0.252197
1008.35 9.67828e-09 1.00169 0.257865
1008.24 9.56339e-09 1.00167 0.249766
1008.33 9.6238e-09 1.00169 0.254999
1008.3 9.60994e-09 1.00168 0.251981
1008.28 9.69682e-09 1.00168 0.251134
1008.46 9.86956e-09 1.0017 0.260547
1008.35 9.7037e-09 1.0017 0.26011
1008.37 9.68989e-09 1.0017 0.259039
1008.36 9.67087e-09 1.00169 0.258084
1008.37 9.68874e-09 1.0017 0.258049
1008.36 9.6768e-09 1.00169 0.257839
1008.7 9.20065e-09 1.00168 0.259666
1008.49 9.86758e-09 1.0017 0.260668
1008.25 9.51514e-09 1.00167 0.254769
1008.36 9.7106e-09 1.0017 0.25979
1008.36 9.70377e-09 1.00169 0.259037
1008.37 9.69297e-09 1.0017 0.258332
1008.28 9.59558e-09 1.00168 0.254737
1008.26 9.57272e-09 1.00168 0.252655
1008.36 9.68208e-09 1.00169 0.256884
1008.32 9.61728e-09 1.00169 0.25473
1008.29 9.59394e-09 1.00168 0.253558
1008.48 9.86558e-09 1.0017 0.260607
1008.35 9.70686e-09 1.0017 0.260375
1008.36 9.68981e-09 1.0017 0.257858
1008.38 9.70059e-09 1.0017 0.258809
1008.37 9.68541e-09 1.0017 0.2579
1008.26 9.61715e-09 1.00167 0.253584
1008.26 9.47184e-09 1.00168 0.252311
1008.25 9.64925e-09 1.00168 0.250607
1008.35 9.638e-09 1.00169 0.255183
1008.29 9.57141e-09 1.00168 0.25273
1008.35 9.70501e-09 1.0017 0.26065