# vtk DataFile Version 2.0
Wound Healing Simulation
ASCII
DATASET UNSTRUCTURED_GRID
POINTS 3012 float
69.9759 18.75 4
67.2507 60.3285 4
69.976 18.75 2
73.0099 25.446 4
71.1327 20.9142 4
68.6801 16.6661 4
67.8266 19.9156 3.99239
67.2507 60.3286 2
71.1327 54.0858 4
68.6801 58.3339 4
65.6939 62.2254 4
65.3131 59.0099 3.99324
74.6784 42.3946 4
73.7221 47.2057 4
69.9759 18.75 0
73.0099 25.446 2
68.6801 16.6661 2
71.1327 20.9142 2
67.8266 19.9152 2
74.6792 32.6053 4
73.7222 27.7943 4
72.1454 23.1494 4
70.6164 26.213 3.99059
68.8872 21.948 3.99187
67.2507 14.6715 4
66.638 17.9618 3.9929
65.8044 21.0082 3.98779
67.2507 60.3285 0
71.1327 54.0858 2
68.6801 58.3339 2
65.694 62.2255 2
65.3131 59.0102 2
72.1454 51.8506 4
69.9759 56.25 4
68.838 53.1231 3.99174
64.0165 64.0165 4
66.6116 57.1434 3.99292
63.8866 60.7732 3.99362
63.5047 57.7908 3.98878
60.3285 67.2507 4
74.6792 42.3947 2
73.7222 47.2057 2
74.9194 39.9526 4
74.2788 44.8158 4
72.1713 42.0896 3.98974
73.0099 49.554 4
71.252 46.6052 3.99043
73.0099 25.446 0
71.1327 20.9142 0
68.6801 16.6661 0
67.8266 19.9156 0.00760665
74.6792 32.6053 2
73.7222 27.7943 2
67.2508 14.6715 2
72.1455 23.1494 2
70.6164 26.2126 2
66.6379 17.9614 2
68.8872 21.9476 2
65.8045 21.0078 2
74.9197 35.0474 4
74.2794 30.1841 4
72.1877 32.9388 3.98986
71.2806 28.4244 3.99005
69.8175 24.0505 3.99127
68.3563 26.9409 3.9866
66.7709 22.9185 3.98743
65.694 12.7746 4
65.3245 16.0945 3.99329
64.7197 19.1757 3.98833
63.901 22.0116 3.98615
71.1327 54.0858 0
65.6939 62.2254 0
68.6801 58.3339 0
65.3131 59.0099 0.00676029
72.1455 51.8506 2
69.9759 56.25 2
68.838 53.1235 2
64.0165 64.0165 2
66.6116 57.1438 2
63.8866 60.7735 2
63.5047 57.7912 2
62.2254 65.694 4
58.8937 65.4185 3.99386
69.771 50.9982 3.99115
67.785 55.1775 3.99244
66.6583 52.2241 3.98726
62.3366 62.4333 3.99383
64.6667 56.05 3.98844
62.2055 59.4229 3.98935
61.8319 56.7068 3.98683
58.3339 68.6801 4
60.3285 67.2508 2
73.7221 47.2057 0
74.6784 42.3946 0
74.9197 39.9526 2
74.2794 44.8159 2
72.1714 42.0898 2
73.0099 49.554 2
71.2521 46.6055 2
75 37.5 4
72.4086 39.804 3.98936
71.7855 44.3587 3.99014
69.815 41.7944 3.98624
70.5776 48.8218 3.99075
68.9229 46.0239 3.9867
74.6792 32.6053 0
73.7222 27.7943 0
67.2507 14.6715 0
72.1454 23.1494 0
70.6164 26.213 0.00940899
68.8872 21.948 0.00812649
66.638 17.9618 0.0071036
65.8044 21.0082 0.0122127
74.9197 35.0474 2
74.2794 30.1841 2
72.1877 32.9387 2
71.2807 28.4242 2
65.694 12.7745 2
65.3244 16.0941 2
69.8175 24.0501 2
68.3564 26.9407 2
64.7197 19.1753 2
66.771 22.9181 2
63.901 22.0114 2
72.4164 35.2214 3.98966
71.8066 30.6705 3.98989
69.8502 33.2632 3.98601
68.9758 29.0294 3.98617
67.6204 24.8994 3.98708
66.2117 27.6195 3.98493
64.0165 10.9835 4
64.7722 23.809 3.98593
63.8906 14.3199 3.99351
63.5172 17.4269 3.98895
62.9187 20.2946 3.98644
62.1133 22.9138 3.98537
60.684 11.0924 3.99369
57.6122 11.4351 3.98966
72.1454 51.8506 0
69.9759 56.25 0
68.838 53.1231 0.00825804
64.0165 64.0165 0
63.8866 60.7732 0.00638277
66.6116 57.1434 0.00707519
63.5047 57.7908 0.0112199
62.2255 65.694 2
58.8937 65.4188 2
69.771 50.9986 2
67.7849 55.1779 2
66.6583 52.2244 2
62.3366 62.4337 2
64.6667 56.0503 2
62.2054 59.4233 2
61.832 56.7071 2
60.6687 63.9821 3.99385
57.0242 66.7385 3.99389
57.5575 63.702 3.98986
67.5172 50.1896 3.98697
65.7096 54.1902 3.98786
64.554 51.4068 3.98552
60.7743 60.9541 3.98981
62.8316 55.093 3.98681
60.6645 58.184 3.98696
60.3404 55.8165 3.98599
56.25 69.9759 4
58.3339 68.6801 2
60.3285 67.2507 0
58.9209 9.65121 3.99373
62.2254 9.30607 4
73.0099 49.554 0
74.2788 44.8158 0
71.252 46.6052 0.00956579
72.1713 42.0896 0.0102556
74.9194 39.9526 0
75 37.5 2
72.4086 39.8041 2
71.7855 44.3589 2
69.815 41.7945 2
70.5776 48.8222 2
68.9229 46.0241 2
72.4919 37.5115 3.98932
70.0519 39.6594 3.98597
69.4412 43.9146 3.98652
67.617 41.5042 3.98479
68.2762 48.1181 3.98684
66.729 45.4528 3.98509
74.9197 35.0474 0
74.2794 30.1841 0
72.1877 32.9388 0.0101382
71.2806 28.4244 0.00994764
65.694 12.7746 0
65.3245 16.0945 0.00671289
69.8175 24.0505 0.00873225
68.3563 26.9409 0.0133956
66.7709 22.9185 0.0125706
64.7197 19.1757 0.0116668
63.901 22.0116 0.0138495
72.4164 35.2213 2
71.8066 30.6703 2
69.8503 33.2632 2
68.9759 29.0293 2
64.0165 10.9835 2
63.8906 14.3195 2
63.5172 17.4265 2
67.6205 24.8991 2
66.2118 27.6193 2
62.9187 20.2943 2
64.7722 23.8088 2
62.1133 22.9136 2
60.684 11.0921 2
57.6122 11.4347 2
70.0684 35.389 3.98609
69.477 31.1425 3.98609
67.6739 33.5842 3.98431
66.7897 29.6105 3.98439
65.5407 25.6812 3.98553
64.1713 28.2361 3.98426
62.342 12.6489 3.99363
62.8796 24.6106 3.98529
62.2009 15.7659 3.98936
61.8221 18.6586 3.98692
61.2348 21.3103 3.98535
60.4522 23.6934 3.98516
59.2465 12.7644 3.98964
55.8739 10.2233 3.98972
56.4062 13.0962 3.98702
69.771 50.9982 0.00885015
62.2254 65.694 0
58.8937 65.4185 0.00613854
67.785 55.1775 0.00755523
66.6583 52.2241 0.0127399
62.3366 62.4333 0.00617122
62.2055 59.4229 0.0106528
64.6667 56.05 0.0115618
61.8319 56.7068 0.0131687
60.6686 63.9824 2
57.0242 66.7388 2
57.5575 63.7024 2
67.5172 50.1898 2
65.7096 54.1906 2
64.554 51.4069 2
60.7743 60.9545 2
62.8317 55.0932 2
60.6645 58.1843 2
60.3405 55.8166 2
55.0697 67.9349 3.99392
59.2196 62.3795 3.98987
55.8035 64.9177 3.98988
56.3278 62.1041 3.98724
65.3496 49.4272 3.98529
63.7203 53.3161 3.98617
62.4657 50.6792 3.98465
59.3368 59.5784 3.9873
61.093 54.3395 3.98602
59.2982 57.042 3.98563
59.257 55.2167 3.98605
48.1022 68.5821 3.99017
50.9478 69.9336 3.99398
54.0858 71.1327 4
56.25 69.976 2
58.3339 68.6801 0
57.058 8.33166 3.99378
60.3285 7.74928 4
58.9209 9.65091 2
62.2255 9.30602 2
70.5776 48.8218 0.00925131
71.7855 44.3587 0.0098641
68.9229 46.0239 0.0133045
69.815 41.7944 0.0137641
72.4086 39.804 0.0106437
75 37.5 0
72.4919 37.5115 2
70.0519 39.6596 2
69.4412 43.9147 2
67.617 41.5044 2
68.2762 48.1183 2
66.729 45.453 2
70.1398 37.521 3.98597
67.8539 39.5156 3.98483
67.2431 43.4798 3.98489
65.5844 41.2185 3.98425
66.0874 47.434 3.98525
64.6801 44.8652 3.9846
72.4164 35.2214 0.0103434
71.8066 30.6705 0.0101134
69.8502 33.2632 0.0139914
68.9758 29.0294 0.0138313
64.0165 10.9835 0
63.8906 14.3199 0.00648525
63.5172 17.4269 0.0110544
67.6204 24.8994 0.0129221
66.2117 27.6195 0.0150676
64.7722 23.809 0.0140716
62.9187 20.2946 0.0135611
62.1133 22.9138 0.01463
60.684 11.0924 0.00631128
57.6122 11.4351 0.0103405
70.0685 35.389 2
69.4771 31.1424 2
67.674 33.5842 2
66.7898 29.6104 2
62.342 12.6486 2
62.2009 15.7655 2
61.8222 18.6583 2
65.5408 25.6809 2
64.1714 28.2359 2
61.2348 21.3102 2
62.8797 24.6104 2
60.4523 23.6933 2
59.2465 12.764 2
56.4062 13.0959 2
55.8739 10.2229 2
67.8896 35.5438 3.98465
67.2833 31.6128 3.98432
65.7243 33.9193 3.98375
64.6886 30.1766 3.98345
63.5623 26.3909 3.9849
62.2899 28.7547 3.98444
60.776 14.2069 3.98957
61.0747 25.3066 3.98511
60.6176 17.1035 3.98722
60.235 19.7853 3.98582
59.6835 22.2229 3.98465
59.01 24.2829 3.98546
54.0369 9.12773 3.98983
57.9118 14.3125 3.98716
54.7871 11.9978 3.98697
55.3143 14.6259 3.98585
67.5172 50.1896 0.0130319
57.0242 66.7385 0.00610969
60.6687 63.9821 0.00615394
57.5575 63.702 0.0101419
65.7096 54.1902 0.0121365
64.554 51.4068 0.0144779
60.7743 60.9541 0.0101918
60.6645 58.184 0.013043
62.8316 55.093 0.0131892
60.3404 55.8165 0.0140132
55.0697 67.9352 2
59.2196 62.3799 2
55.8035 64.918 2
56.3278 62.1045 2
65.3496 49.4273 2
63.7203 53.3163 2
62.4657 50.6793 2
59.3369 59.5787 2
61.0931 54.3396 2
59.2982 57.0422 2
59.2571 55.2168 2
53.0417 69.0022 3.99395
53.9656 66.0186 3.98993
57.8827 60.8879 3.98733
54.6837 63.2177 3.98726
55.2134 60.6328 3.98585
63.2205 48.6853 3.98469
61.762 52.6044 3.9852
60.3053 50.0513 3.98412
58.0236 58.2863 3.98596
59.3461 53.9816 3.98548
58.1387 55.8464 3.98451
50.1084 67.8605 3.99007
47.4626 66.586 3.98758
46.0562 69.1612 3.99024
48.1021 68.5825 2
48.8022 70.7246 3.99403
50.9478 69.9339 2
51.8506 72.1454 4
54.0858 71.1327 2
56.25 69.9759 0
55.1023 7.13669 3.99381
58.3339 6.31992 4
57.058 8.33136 2
60.3286 7.74926 2
58.9209 9.65121 0.0062692
62.2254 9.30607 0
68.2762 48.1181 0.0131638
69.4412 43.9146 0.0134768
66.729 45.4528 0.0149105
67.617 41.5042 0.0152085
70.0519 39.6594 0.0140254
72.4919 37.5115 0.0106824
70.1399 37.5211 2
67.854 39.5157 2
67.2432 43.4799 2
65.5844 41.2186 2
66.0875 47.4341 2
64.6801 44.8653 2
67.9501 37.5217 3.98472
65.8162 39.3746 3.98465
65.2042 43.0381 3.98416
63.7925 40.9398 3.98422
63.993 46.7374 3.98479
62.8436 44.2362 3.9847
70.0684 35.389 0.0139119
69.477 31.1425 0.0139086
67.6739 33.5842 0.0156938
66.7897 29.6105 0.0156104
62.342 12.6489 0.00636775
62.2009 15.7659 0.0106355
61.8221 18.6586 0.013079
65.5407 25.6812 0.0144749
64.1713 28.2361 0.0157391
62.8796 24.6106 0.0147081
61.2348 21.3103 0.0146528
60.4522 23.6934 0.0148442
59.2465 12.7644 0.010359
56.4062 13.0962 0.012977
55.8739 10.2233 0.0102765
67.8897 35.5439 2
67.2834 31.6128 2
65.7243 33.9193 2
64.6887 30.1765 2
60.776 14.2065 2
60.6176 17.1032 2
60.235 19.7851 2
63.5625 26.3907 2
62.29 28.7546 2
59.6836 22.2227 2
61.0748 25.3064 2
59.01 24.2828 2
57.9118 14.3122 2
55.3143 14.6257 2
54.0369 9.12735 2
54.7872 11.9975 2
65.904 35.6626 3.9839
65.2125 32.1426 3.98335
64.317 34.2414 3.98289
62.629 30.617 3.98353
61.6831 27.0447 3.98477
60.889 29.115 3.98519
59.3131 15.6473 3.98724
59.3669 25.7615 3.9858
59.1308 18.3271 3.98632
58.7565 20.8192 3.9849
58.312 23.0536 3.98419
58.003 24.6256 3.98629
52.1116 8.14709 3.98988
53.0579 11.0057 3.98708
56.6788 15.7197 3.9862
53.8106 13.6638 3.98552
54.3784 15.9761 3.98542
55.0697 67.9349 0.00607904
65.3496 49.4272 0.0147148
55.8035 64.9177 0.0101154
59.2196 62.3795 0.010131
56.3278 62.1041 0.0127592
63.7203 53.3161 0.0138286
62.4657 50.6792 0.0153516
59.3368 59.5784 0.0126959
59.2982 57.042 0.0143651
61.093 54.3395 0.0139799
59.257 55.2167 0.0139545
53.0417 69.0025 2
53.9656 66.019 2
57.8827 60.8882 2
54.6837 63.218 2
55.2134 60.6331 2
63.2205 48.6855 2
61.762 52.6046 2
60.3053 50.0513 2
58.0237 58.2866 2
59.3461 53.9816 2
58.1388 55.8465 2
52.0693 67.0042 3.98998
52.9526 64.2262 3.98728
56.6516 59.5097 3.98616
[...]
POINT_DATA 3012
SCALARS Jp_lamdaP float 4
LOOKUP_TABLE default
1 1 1 1
1 1 1 1
1 1 1 1
1 1 1 1
1 1 1 1
1 1 1 1
0.999998 1 1 0.999998
1 1 1 1
1 1 1 1
1 1 1 1
1 1 1 1
1 1 1 1
1 1 1 1
1 1 1 1
1 1 1 1
1 1 1 1
1 1 1 1
1 1 1 1
0.999999 1 1 0.999999
1 1 1 1
1 1 1 1
1 1 1 1
0.999994 1 1 0.999994
0.999997 1 1 0.999997
1 1 1 1
0.999999 1 1 0.999999
0.999989 1 1 0.999989
1 1 1 1
1 1 1 1
1 1 1 1
1 1 1 1
1 1 1 1
1 1 1 1
1 1 1 1
1 1 1 1
1 1 1 1
1 1 1 1
1 1 1 1
0.999995 1 1 0.999995
1 1 1 1
1 1 1 1
1 1 1 1
1 1 1 1
1 1 1 1
0.999997 1 1 0.999997
1 1 1 1
0.999999 1 1 0.999999
1 1 1 1
1 1 1 1
1 1 1 1
0.999999 1 1 0.999999
1 1 1 1
1 1 1 1
1 1 1 1
1 1 1 1
0.999994 1 1 0.999994
1 1 1 1
0.999998 1 1 0.999998
0.999988 1 1 0.999988
1 1 1 1
1 1 1 1
0.999997 1 1 0.999997
0.999992 1 1 0.999992
0.999996 1 1 0.999996
0.999974 1 1 0.999974
0.999981 1 1 0.999981
1 1 1 1
1 1 1 1
0.999993 1 1 0.999993
0.999958 1 1 0.999958
1 1 1 1
1 1 1 1
1 1 1 1
1 1 1 1
1 1 1 1
1 1 1 1
1 1 1 1
1 1 1 1
1 1 1 1
1 1 1 1
0.999996 1 1 0.999996
1 1 1 1
1 1 1 1
1 1 1 1
1 1 1 1
0.999978 1 1 0.999978
1 1 1 1
0.999992 1 1 0.999992
0.999997 1 1 0.999997
0.999971 1 1 0.999971
1 1 1 1
1 1 1 1
1 1 1 1
1 1 1 1
1 1 1 1
1 1 1 1
0.999997 1 1 0.999997
1 1 1 1
1 1 1 1
1 1 1 1
0.999996 1 1 0.999996
0.999998 1 1 0.999998
0.999962 1 1 0.999962
1 1 1 1
0.999966 1 1 0.999966
1 1 1 1
1 1 1 1
1 1 1 1
1 1 1 1
0.999995 1 1 0.999995
0.999998 1 1 0.999998
1 1 1 1
0.999987 1 1 0.999987
1 1 1 1
1 1 1 1
0.999993 1 1 0.999993
0.999992 1 1 0.999992
1 1 1 1
1 1 1 1
0.999996 1 1 0.999996
0.999972 1 1 0.999972
0.999992 1 1 0.999992
0.999983 1 1 0.999983
0.999958 1 1 0.999958
0.999996 1 1 0.999996
0.999991 1 1 0.999991
0.999963 1 1 0.999963
0.999966 1 1 0.999966
0.999975 1 1 0.999975
0.999945 1 1 0.999945
1 1 1 1
0.999954 1 1 0.999954
1 1 1 1
0.999996 1 1 0.999996
0.999962 1 1 0.999962
0.999944 1 1 0.999944
1 1 1 1
0.999999 1 1 0.999999
1 1 1 1
1 1 1 1
1 1 1 1
1 1 1 1
1 1 1 1
1 1 1 1
0.999996 1 1 0.999996
1 1 1 1
1 1 1 1
1 1 1 1
1 1 1 1
0.999978 1 1 0.999978
1 1 1 1
0.999992 1 1 0.999992
0.999998 1 1 0.999998
0.999969 1 1 0.999969
1 1 1 1
1 1 1 1
0.999999 1 1 0.999999
0.999972 1 1 0.999972
0.999985 1 1 0.999985
0.999948 1 1 0.999948
0.999999 1 1 0.999999
0.999963 1 1 0.999963
0.999974 1 1 0.999974
0.999956 1 1 0.999956
1 1 1 1
1 1 1 1
1 1 1 1
1 1 1 1
1 1 1 1
1 1 1 1
1 1 1 1
1 1 1 1
0.999998 1 1 0.999998
1 1 1 1
1 1 1 1
0.999996 1 1 0.999996
0.999998 1 1 0.999998
0.999962 1 1 0.999962
1 1 1 1
0.999966 1 1 0.999966
0.999996 1 1 0.999996
0.999964 1 1 0.999964
0.999963 1 1 0.999963
0.999943 1 1 0.999943
0.999969 1 1 0.999969
0.999942 1 1 0.999942
1 1 1 1
1 1 1 1
0.99999 1 1 0.99999
0.999992 1 1 0.999992
1 1 1 1
1 1 1 1
0.999996 1 1 0.999996
0.99997 1 1 0.99997
0.999984 1 1 0.999984
0.999992 1 1 0.999992
0.999958 1 1 0.999958
0.999996 1 1 0.999996
0.999991 1 1 0.999991
0.999959 1 1 0.999959
0.999968 1 1 0.999968
1 1 1 1
1 1 1 1
0.999996 1 1 0.999996
0.999976 1 1 0.999976
0.999942 1 1 0.999942
0.999961 1 1 0.999961
0.999956 1 1 0.999956
0.999944 1 1 0.999944
1 1 1 1
0.999999 1 1 0.999999
0.999962 1 1 0.999962
0.999963 1 1 0.999963
0.999939 1 1 0.999939
0.999935 1 1 0.999935
0.999951 1 1 0.999951
0.999932 1 1 0.999932
1 1 1 1
0.999942 1 1 0.999942
0.999998 1 1 0.999998
0.999966 1 1 0.999966
0.999948 1 1 0.999948
0.999939 1 1 0.999939
0.999999 1 1 0.999999
0.999999 1 1 0.999999
0.999978 1 1 0.999978
1 1 1 1
1 1 1 1
1 1 1 1
1 1 1 1
0.999978 1 1 0.999978
1 1 1 1
0.999998 1 1 0.999998
0.999993 1 1 0.999993
0.999968 1 1 0.999968
1 1 1 1
1 1 1 1
0.999999 1 1 0.999999
0.999972 1 1 0.999972
0.999986 1 1 0.999986
0.999948 1 1 0.999948
0.999999 1 1 0.999999
0.999964 1 1 0.999964
0.999974 1 1 0.999974
0.999955 1 1 0.999955
1 1 1 1
0.999999 1 1 0.999999
0.999999 1 1 0.999999
0.999981 1 1 0.999981
0.999945 1 1 0.999945
0.999956 1 1 0.999956
0.999934 1 1 0.999934
0.999978 1 1 0.999978
0.999948 1 1 0.999948
0.999954 1 1 0.999954
0.999945 1 1 0.999945
1 1 1 1
1 1 1 1
1 1 1 1
1 1 1 1
1 1 1 1
1 1 1 1
1 1 1 1
1 1 1 1
1 1 1 1
1 1 1 1
0.999999 1 1 0.999999
0.999965 1 1 0.999965
0.999962 1 1 0.999962
0.999997 1 1 0.999997
1 1 1 1
0.999996 1 1 0.999996
0.999964 1 1 0.999964
0.999963 1 1 0.999963
0.999942 1 1 0.999942
0.999968 1 1 0.999968
0.999942 1 1 0.999942
0.999964 1 1 0.999964
0.999947 1 1 0.999947
0.999941 1 1 0.999941
0.999935 1 1 0.999935
0.999944 1 1 0.999944
0.999934 1 1 0.999934
0.999996 1 1 0.999996
0.999991 1 1 0.999991
0.999955 1 1 0.999955
0.999969 1 1 0.999969
1 1 1 1
1 1 1 1
0.999995 1 1 0.999995
0.999976 1 1 0.999976
0.99994 1 1 0.99994
0.999957 1 1 0.999957
0.999961 1 1 0.999961
0.999944 1 1 0.999944
1 1 1 1
0.999999 1 1 0.999999
0.99996 1 1 0.99996
0.999963 1 1 0.999963
0.999939 1 1 0.999939
0.999938 1 1 0.999938
1 1 1 1
0.999997 1 1 0.999997
0.999968 1 1 0.999968
0.999952 1 1 0.999952
0.999931 1 1 0.999931
0.999946 1 1 0.999946
0.999942 1 1 0.999942
0.999939 1 1 0.999939
0.999999 1 1 0.999999
0.999977 1 1 0.999977
0.999999 1 1 0.999999
0.999944 1 1 0.999944
0.999936 1 1 0.999936
0.999929 1 1 0.999929
0.999925 1 1 0.999925
0.999938 1 1 0.999938
0.99993 1 1 0.99993
0.999998 1 1 0.999998
0.999938 1 1 0.999938
0.999973 1 1 0.999973
0.999949 1 1 0.999949
0.999939 1 1 0.999939
0.999942 1 1 0.999942
0.999999 1 1 0.999999
0.999978 1 1 0.999978
0.999975 1 1 0.999975
0.999961 1 1 0.999961
0.999972 1 1 0.999972
1 1 1 1
1 1 1 1
0.999999 1 1 0.999999
0.999986 1 1 0.999986
0.999948 1 1 0.999948
0.999999 1 1 0.999999
0.999974 1 1 0.999974
0.999964 1 1 0.999964
0.999953 1 1 0.999953
1 1 1 1
0.999999 1 1 0.999999
0.999999 1 1 0.999999
0.999981 1 1 0.999981
0.999944 1 1 0.999944
0.999956 1 1 0.999956
0.999934 1 1 0.999934
0.999978 1 1 0.999978
0.99995 1 1 0.99995
0.999953 1 1 0.999953
0.999947 1 1 0.999947
1 1 1 1
0.999999 1 1 0.999999
0.99998 1 1 0.99998
0.999981 1 1 0.999981
0.999959 1 1 0.999959
0.999935 1 1 0.999935
0.999941 1 1 0.999941
0.999931 1 1 0.999931
0.999956 1 1 0.999956
0.999942 1 1 0.999942
0.999936 1 1 0.999936
1 1 1 1
0.999984 1 1 0.999984
1 1 1 1
1 1 1 1
1 1 1 1
1 1 1 1
1 1 1 1
1 1 1 1
1 1 1 1
1 1 1 1
1 1 1 1
1 1 1 1
1 1 1 1
1 1 1 1
1 1 1 1
0.999968 1 1 0.999968
0.999962 1 1 0.999962
0.999942 1 1 0.999942
0.999942 1 1 0.999942
0.999964 1 1 0.999964
0.999996 1 1 0.999996
0.999964 1 1 0.999964
0.999947 1 1 0.999947
0.99994 1 1 0.99994
0.999935 1 1 0.999935
0.999944 1 1 0.999944
0.999935 1 1 0.999935
0.999947 1 1 0.999947
0.999941 1 1 0.999941
0.999933 1 1 0.999933
0.999931 1 1 0.999931
0.999936 1 1 0.999936
0.999935 1 1 0.999935
0.999959 1 1 0.999959
0.999963 1 1 0.999963
0.999939 1 1 0.999939
0.99994 1 1 0.99994
1 1 1 1
0.999997 1 1 0.999997
0.999969 1 1 0.999969
0.999952 1 1 0.999952
0.99993 1 1 0.99993
0.999942 1 1 0.999942
0.999945 1 1 0.999945
0.999939 1 1 0.999939
0.999999 1 1 0.999999
0.999975 1 1 0.999975
0.999999 1 1 0.999999
0.999943 1 1 0.999943
0.999936 1 1 0.999936
0.999928 1 1 0.999928
0.999926 1 1 0.999926
0.999998 1 1 0.999998
0.999973 1 1 0.999973
0.99995 1 1 0.99995
0.999939 1 1 0.999939
0.99993 1 1 0.99993
0.999938 1 1 0.999938
0.999938 1 1 0.999938
0.999943 1 1 0.999943
0.999978 1 1 0.999978
0.999959 1 1 0.999959
0.999999 1 1 0.999999
0.999975 1 1 0.999975
0.999934 1 1 0.999934
0.999924 1 1 0.999924
0.999922 1 1 0.999922
0.999924 1 1 0.999924
0.999936 1 1 0.999936
0.999932 1 1 0.999932
0.999977 1 1 0.999977
0.999942 1 1 0.999942
0.999954 1 1 0.999954
0.999939 1 1 0.999939
0.999936 1 1 0.999936
0.999946 1 1 0.999946
0.999999 1 1 0.999999
0.999975 1 1 0.999975
0.999959 1 1 0.999959
0.999958 1 1 0.999958
0.99995 1 1 0.99995
1 1 1 1
0.999944 1 1 0.999944
0.999999 1 1 0.999999
0.999999 1 1 0.999999
0.999981 1 1 0.999981
0.999956 1 1 0.999956
0.999934 1 1 0.999934
0.999978 1 1 0.999978
0.999953 1 1 0.999953
0.999951 1 1 0.999951
0.999949 1 1 0.999949
1 1 1 1
0.999999 1 1 0.999999
0.99998 1 1 0.99998
0.999981 1 1 0.999981
0.999959 1 1 0.999959
0.999934 1 1 0.999934
0.999941 1 1 0.999941
0.99993 1 1 0.99993
0.999956 1 1 0.999956
0.999942 1 1 0.999942
0.999937 1 1 0.999937
0.999999 1 1 0.999999
0.999982 1 1 0.999982
0.999957 1 1 0.999957
0.99996 1 1 0.99996
0.999949 1 1 0.999949
0.999935 1 1 0.999935
0.999935 1 1 0.999935
0.99994 1 1 0.99994
0.999939 1 1 0.999939
0.999929 1 1 0.999929
1 1 1 1
0.99998 1 1 0.99998
0.999983 1 1 0.999983
0.999965 1 1 0.999965
0.999985 1 1 0.999985
1 1 1 1
1 1 1 1
1 1 1 1
1 1 1 1
1 1 1 1
1 1 1 1
1 1 1 1
1 1 1 1
1 1 1 1
1 1 1 1
1 1 1 1
1 1 1 1
1 1 1 1
1 1 1 1
1 1 1 1
0.999943 1 1 0.999943
0.99994 1 1 0.99994
0.999935 1 1 0.999935
0.999936 1 1 0.999936
0.999947 1 1 0.999947
0.999964 1 1 0.999964
0.999947 1 1 0.999947
0.999942 1 1 0.999942
0.999933 1 1 0.999933
0.99993 1 1 0.99993
0.999936 1 1 0.999936
0.999934 1 1 0.999934
0.999942 1 1 0.999942
0.99994 1 1 0.99994
0.999928 1 1 0.999928
0.999926 1 1 0.999926
0.999938 1 1 0.999938
0.999935 1 1 0.999935
0.999943 1 1 0.999943
0.999936 1 1 0.999936
0.999927 1 1 0.999927
0.999927 1 1 0.999927
0.999998 1 1 0.999998
0.999973 1 1 0.999973
0.999952 1 1 0.999952
0.99994 1 1 0.99994
0.99993 1 1 0.99993
0.999938 1 1 0.999938
0.999937 1 1 0.999937
0.999944 1 1 0.999944
0.999978 1 1 0.999978
0.999957 1 1 0.999957
0.999999 1 1 0.999999
0.999975 1 1 0.999975
0.999934 1 1 0.999934
0.999925 1 1 0.999925
0.999921 1 1 0.999921
0.999924 1 1 0.999924
0.999977 1 1 0.999977
0.999955 1 1 0.999955
0.999939 1 1 0.999939
0.999936 1 1 0.999936
0.999932 1 1 0.999932
0.999935 1 1 0.999935
0.999942 1 1 0.999942
0.999947 1 1 0.999947
0.999959 1 1 0.999959
0.999949 1 1 0.999949
0.999958 1 1 0.999958
0.999998 1 1 0.999998
0.999975 1 1 0.999975
0.999929 1 1 0.999929
0.999919 1 1 0.999919
0.999926 1 1 0.999926
0.999939 1 1 0.999939
0.999959 1 1 0.999959
0.999951 1 1 0.999951
0.999943 1 1 0.999943
0.99993 1 1 0.99993
0.999935 1 1 0.999935
0.999996 1 1 0.999996
0.999979 1 1 0.999979
0.999957 1 1 0.999957
0.999949 1 1 0.999949
0.999944 1 1 0.999944
0.999942 1 1 0.999942
1 1 1 1
0.999999 1 1 0.999999
0.999934 1 1 0.999934
0.999981 1 1 0.999981
0.99998 1 1 0.99998
0.999958 1 1 0.999958
0.999941 1 1 0.999941
0.99993 1 1 0.99993
0.999956 1 1 0.999956
0.999938 1 1 0.999938
0.999943 1 1 0.999943
1 1 1 1
0.999982 1 1 0.999982
0.999958 1 1 0.999958
0.999959 1 1 0.999959
0.999948 1 1 0.999948
0.999935 1 1 0.999935
0.999934 1 1 0.999934
0.999941 1 1 0.999941
0.999938 1 1 0.999938
0.999928 1 1 0.999928
0.999983 1 1 0.999983
0.999957 1 1 0.999957
0.999943 1 1 0.999943
0.999945 1 1 0.999945
0.99994 1 1 0.99994
0.999951 1 1 0.999951
0.999931 1 1 0.999931
0.999942 1 1 0.999942
0.999929 1 1 0.999929
0.999917 1 1 0.999917
1 1 1 1
0.999982 1 1 0.999982
0.999958 1 1 0.999958
0.999981 1 1 0.999981
0.999985 1 1 0.999985
0.999962 1 1 0.999962
0.999948 1 1 0.999948
0.99996 1 1 0.99996
0.999985 1 1 0.999985
1 1 1 1
1 1 1 1
1 1 1 1
1 1 1 1
1 1 1 1
1 1 1 1
1 1 1 1
1 1 1 1
1 1 1 1
1 1 1 1
1 1 1 1
1 1 1 1
1 1 1 1
1 1 1 1
1 1 1 1
0.999936 1 1 0.999936
0.999933 1 1 0.999933
0.999934 1 1 0.999934
0.999929 1 1 0.999929
0.999943 1 1 0.999943
0.999947 1 1 0.999947
0.999942 1 1 0.999942
0.99994 1 1 0.99994
0.999929 1 1 0.999929
0.999923 1 1 0.999923
0.999938 1 1 0.999938
0.999934 1 1 0.999934
0.999945 1 1 0.999945
0.999935 1 1 0.999935
0.999923 1 1 0.999923
0.999948 1 1 0.999948
0.999934 1 1 0.999934
0.999925 1 1 0.999925
0.99992 1 1 0.99992
0.999925 1 1 0.999925
0.999977 1 1 0.999977
0.999956 1 1 0.999956
0.999938 1 1 0.999938
0.999936 1 1 0.999936
0.999932 1 1 0.999932
0.999942 1 1 0.999942
0.999935 1 1 0.999935
0.999949 1 1 0.999949
0.999959 1 1 0.999959
0.999947 1 1 0.999947
0.999958 1 1 0.999958
0.999996 1 1 0.999996
0.999976 1 1 0.999976
0.999927 1 1 0.999927
0.99992 1 1 0.99992
0.999927 1 1 0.999927
0.999959 1 1 0.999959
0.999944 1 1 0.999944
0.999929 1 1 0.999929
0.999938 1 1 0.999938
0.999937 1 1 0.999937
0.999951 1 1 0.999951
0.999996 1 1 0.999996
0.999949 1 1 0.999949
0.999942 1 1 0.999942
0.999944 1 1 0.999944
0.999957 1 1 0.999957
0.999978 1 1 0.999978
0.999925 1 1 0.999925
0.999918 1 1 0.999918
0.999933 1 1 0.999933
0.999948 1 1 0.999948
0.999947 1 1 0.999947
0.999945 1 1 0.999945
0.999931 1 1 0.999931
0.999924 1 1 0.999924
0.999997 1 1 0.999997
0.999979 1 1 0.999979
0.999959 1 1 0.999959
0.99994 1 1 0.99994
0.999939 1 1 0.999939
0.999935 1 1 0.999935
1 1 1 1
0.999982 1 1 0.999982
0.999934 1 1 0.999934
0.999959 1 1 0.999959
0.999959 1 1 0.999959
0.999946 1 1 0.999946
0.999934 1 1 0.999934
0.999942 1 1 0.999942
0.999938 1 1 0.999938
0.999927 1 1 0.999927
0.999983 1 1 0.999983
0.999958 1 1 0.999958
0.999945 1 1 0.999945
0.999946 1 1 0.999946
0.99994 1 1 0.99994
0.999952 1 1 0.999952
0.999931 1 1 0.999931
0.999946 1 1 0.999946
0.999928 1 1 0.999928
0.999915 1 1 0.999915
0.999957 1 1 0.999957
0.999941 1 1 0.999941
0.999934 1 1 0.999934
0.999935 1 1 0.999935
0.999953 1 1 0.999953
0.999956 1 1 0.999956
0.999921 1 1 0.999921
0.999913 1 1 0.999913
0.999983 1 1 0.999983
0.99996 1 1 0.99996
0.999946 1 1 0.999946
0.999985 1 1 0.999985
0.99996 1 1 0.99996
0.999985 1 1 0.999985
0.999947 1 1 0.999947
0.999961 1 1 0.999961
0.999937 1 1 0.999937
0.999945 1 1 0.999945
0.99996 1 1 0.99996
0.999984 1 1 0.999984
1 1 1 1
1 1 1 1
1 1 1 1
1 1 1 1
1 1 1 1
1 1 1 1
1 1 1 1
1 1 1 1
1 1 1 1
1 1 1 1
1 1 1 1
1 1 1 1
1 1 1 1
1 1 1 1
1 1 1 1
0.999939 1 1 0.999939
0.999929 1 1 0.999929
0.999933 1 1 0.999933
0.99992 1 1 0.99992
0.99994 1 1 0.99994
0.999942 1 1 0.999942
0.999943 1 1 0.999943
0.999934 1 1 0.999934
0.999925 1 1 0.999925
0.999946 1 1 0.999946
0.99994 1 1 0.99994
0.99993 1 1 0.99993
0.999938 1 1 0.999938
0.999925 1 1 0.999925
0.999921 1 1 0.999921
0.999927 1 1 0.999927
0.999958 1 1 0.999958
0.999946 1 1 0.999946
0.999929 1 1 0.999929
0.999937 1 1 0.999937
0.999951 1 1 0.999951
0.999939 1 1 0.999939
0.999949 1 1 0.999949
0.999942 1 1 0.999942
0.999945 1 1 0.999945
0.999996 1 1 0.999996
0.999958 1 1 0.999958
0.999976 1 1 0.999976
0.999928 1 1 0.999928
0.999918 1 1 0.999918
0.999932 1 1 0.999932
0.999947 1 1 0.999947
0.999932 1 1 0.999932
0.999925 1 1 0.999925
0.99995 1 1 0.99995
0.999945 1 1 0.999945
0.999998 1 1 0.999998
0.999979 1 1 0.999979
0.99994 1 1 0.99994
0.999935 1 1 0.999935
0.99994 1 1 0.99994
0.999958 1 1 0.999958
0.999932 1 1 0.999932
0.999918 1 1 0.999918
0.99995 1 1 0.99995
0.999957 1 1 0.999957
0.999936 1 1 0.999936
0.999928 1 1 0.999928
0.999924 1 1 0.999924
1 1 1 1
0.999985 1 1 0.999985
0.999979 1 1 0.999979
0.999955 1 1 0.999955
0.99994 1 1 0.99994
0.99993 1 1 0.99993
0.999935 1 1 0.999935
0.999929 1 1 0.999929
0.999983 1 1 0.999983
0.999959 1 1 0.999959
0.999953 1 1 0.999953
0.999947 1 1 0.999947
0.999947 1 1 0.999947
0.999941 1 1 0.999941
0.999931 1 1 0.999931
0.99995 1 1 0.99995
0.999927 1 1 0.999927
0.999912 1 1 0.999912
0.999957 1 1 0.999957
0.999942 1 1 0.999942
0.999935 1 1 0.999935
0.999936 1 1 0.999936
0.999952 1 1 0.999952
0.999954 1 1 0.999954
0.999922 1 1 0.999922
0.999912 1 1 0.999912
0.999944 1 1 0.999944
0.999946 1 1 0.999946
0.999931 1 1 0.999931
0.999924 1 1 0.999924
0.999968 1 1 0.999968
0.999922 1 1 0.999922
0.999906 1 1 0.999906
0.999961 1 1 0.999961
0.999946 1 1 0.999946
0.999935 1 1 0.999935
0.999985 1 1 0.999985
0.999962 1 1 0.999962
0.999945 1 1 0.999945
0.999984 1 1 0.999984
0.99996 1 1 0.99996
0.999936 1 1 0.999936
0.999947 1 1 0.999947
0.99993 1 1 0.99993
0.999934 1 1 0.999934
0.999948 1 1 0.999948
0.999961 1 1 0.999961
0.999983 1 1 0.999983
1 1 1 1
1 1 1 1
1 1 1 1
1 1 1 1
1 1 1 1
1 1 1 1
1 1 1 1
1 1 1 1
1 1 1 1
1 1 1 1
1 1 1 1
1 1 1 1
1 1 1 1
1 1 1 1
1 1 1 1
1 1 1 1
0.999945 1 1 0.999945
0.999927 1 1 0.999927
0.999934 1 1 0.999934
0.99994 1 1 0.99994
0.999942 1 1 0.999942
0.999929 1 1 0.999929
0.99994 1 1 0.99994
0.999938 1 1 0.999938
0.999933 1 1 0.999933
0.999962 1 1 0.999962
0.999931 1 1 0.999931
0.999917 1 1 0.999917
0.999931 1 1 0.999931
0.999947 1 1 0.999947
0.999934 1 1 0.999934
0.999926 1 1 0.999926
0.999951 1 1 0.999951
0.999944 1 1 0.999944
0.99994 1 1 0.99994
0.999935 1 1 0.999935
0.999941 1 1 0.999941
1 1 1 1
0.999979 1 1 0.999979
0.999957 1 1 0.999957
0.999929 1 1 0.999929
1 1 1 1
0.999984 1 1 0.999984
0.999919 1 1 0.999919
0.999947 1 1 0.999947
0.999937 1 1 0.999937
0.999923 1 1 0.999923
0.999928 1 1 0.999928
0.999956 1 1 0.999956
0.999982 1 1 0.999982
0.999955 1 1 0.999955
0.999935 1 1 0.999935
0.999929 1 1 0.999929
0.999929 1 1 0.999929
0.99994 1 1 0.99994
0.999913 1 1 0.999913
0.999933 1 1 0.999933
0.999971 1 1 0.999971
0.999942 1 1 0.999942
0.99993 1 1 0.99993
0.999918 1 1 0.999918
0.999984 1 1 0.999984
0.999984 1 1 0.999984
0.999965 1 1 0.999965
0.999952 1 1 0.999952
0.99994 1 1 0.99994
0.999923 1 1 0.999923
0.99992 1 1 0.99992
0.999928 1 1 0.999928
0.999957 1 1 0.999957
0.999944 1 1 0.999944
0.99995 1 1 0.99995
0.999953 1 1 0.999953
0.999937 1 1 0.999937
0.999936 1 1 0.999936
0.999924 1 1 0.999924
0.999912 1 1 0.999912
0.999944 1 1 0.999944
0.999955 1 1 0.999955
0.999931 1 1 0.999931
0.999922 1 1 0.999922
0.999966 1 1 0.999966
0.999923 1 1 0.999923
0.999905 1 1 0.999905
0.999932 1 1 0.999932
0.999973 1 1 0.999973
0.999923 1 1 0.999923
0.999908 1 1 0.999908
0.999924 1 1 0.999924
0.999905 1 1.00001 0.999896
0.985596 1.00043 0.985278 0.999894
0.999946 1 1 0.999946
0.999935 1 1 0.999935
0.999929 1 1 0.999929
0.999984 1 1 0.999984
0.99996 1 1 0.99996
0.999949 1 1 0.999949
0.999934 1 1 0.999934
0.999983 1 1 0.999983
0.99996 1 1 0.99996
0.99993 1 1 0.99993
0.999948 1 1 0.999948
0.999935 1 1 0.999935
0.999926 1 1 0.999926
0.999937 1 1 0.999937
0.999948 1 1 0.999948
0.999957 1 1 0.999957
0.999979 1 1 0.999979
0.999963 1 1 0.999963
0.999979 1 1 0.999979
1 1 1 1
1 1 1 1
1 1 1 1
1 1 1 1
1 1 1 1
1 1 1 1
1 1 1 1
1 1 1 1
1 1 1 1
1 1 1 1
1 1 1 1
1 1 1 1
1 1 1 1
1 1 1 1
1 1 1 1
1 1 1 1
1 1 1 1
0.999943 1 1 0.999943
0.999929 1 1 0.999929
0.999944 1 1 0.999944
0.999939 1 1 0.999939
0.999933 1 1 0.999933
0.999975 1 1 0.999975
0.999936 1 1 0.999936
0.997916 1 0.997925 0.999991
1 1 1 1
0.99999 1 1 0.99999
0.999927 1 1 0.999927
0.99992 1 1 0.99992
0.999944 1 1 0.999944
0.999938 1 1 0.999938
0.999923 1 1 0.999923
0.999929 1 1 0.999929
0.999956 1 1 0.999956
0.999935 1 1 0.999935
0.999929 1 1 0.999929
0.999927 1 1 0.999927
1 1 1 1
0.99994 1 1 0.99994
0.999985 1 1 0.999985
0.999955 1 1 0.999955
0.999982 1 1 0.999982
0.999909 1 1 0.999909
0.999986 1 1 0.999986
0.999984 1 1 0.999984
0.999962 1 1 0.999962
0.999933 1 1 0.999933
0.999967 1 1 0.999967
0.99993 1 1 0.99993
0.999918 1 1 0.999918
0.999942 1 1 0.999942
0.999954 1 1 0.999954
0.99994 1 1 0.99994
0.999928 1 1 0.999928
0.999922 1 1 0.999922
0.999924 1 1 0.999924
0.999945 1 1.00004 0.9999
0.999576 1 0.999609 0.999967
0.999957 1 1 0.999957
0.999923 1 1 0.999923
0.999925 1 1 0.999925
0.999962 1 1 0.999962
0.999956 1 1 0.999956
0.999946 1 1 0.999946
0.999934 1 1 0.999934
0.999926 1 1 0.999926
0.999913 1 1 0.999913
0.999917 1 1 0.999917
0.999943 1 1 0.999943
0.999931 1 1 0.999931
0.999964 1 1 0.999964
0.999964 1 1 0.999964
0.999924 1 1 0.999924
0.999921 1 1 0.999921
0.999904 1 1 0.999904
0.999933 1 1 0.999933
0.999978 1 1 0.999978
0.999923 1 1 0.999923
0.999908 1 1 0.999908
0.99993 1 1 0.99993
1.00009 1 1.00019 0.999895
0.988604 1.00157 0.987148 0.999902
0.999925 1 1 0.999925
0.999911 1 1 0.999911
0.999916 1 1 0.999916
1.00055 1 1.00066 0.999889
0.999959 1 1.00008 0.999878
0.975743 0.976029 1.00001 0.999702
0.991118 1.00128 0.989919 0.999928
0.984405 1.0022 0.982385 0.999855
0.977268 0.98152 0.995673 0.999994
0.988742 1.0009 0.987847 1
0.999935 1 1 0.999935
0.999929 1 1 0.999929
0.999925 1 1 0.999925
0.999983 1 1 0.999983
0.999959 1 1 0.999959
0.999948 1 1 0.999948
0.999937 1 1 0.999937
0.99993 1 1 0.99993
0.999946 1 1 0.999946
0.99998 1 1 0.99998
0.999959 1 1 0.999959
0.999927 1 1 0.999927
0.999936 1 1 0.999936
0.999937 1 1 0.999937
0.999927 1 1 0.999927
0.999942 1 1 0.999942
0.999956 1 1 0.999956
0.999979 1 1 0.999979
0.99996 1 1 0.99996
0.999946 1 1 0.999946
0.999959 1 1 0.999959
0.99996 1 1 0.99996
0.999982 1 1 0.999982
0.999979 1 1 0.999979
1 1 1 1
1 1 1 1
1 1 1 1
1 1 1 1
1 1 1 1
1 1 1 1
1 1 1 1
1 1 1 1
1 1 1 1
1 1 1 1
1 1 1 1
1 1 1 1
1 1 1 1
1 1 1 1
1 1 1 1
1 1 1 1
1 1 1 1
1 1 1 1
0.999933 1 1 0.999933
0.999939 1 1 0.999939
0.999988 1 1 0.999988
0.99724 1 0.997248 0.999992
0.999936 1 1 0.999936