# vtk DataFile Version 2.0
Wound Healing Simulation
ASCII
DATASET UNSTRUCTURED_GRID
POINTS 3012 float
69.9759 18.75 4
67.2507 60.3285 4
69.976 18.75 2
73.0099 25.446 4
71.1327 20.9142 4
68.6801 16.6661 4
67.8267 19.926 3.98495
67.2507 60.3286 2
71.1327 54.0858 4
68.6801 58.3339 4
65.6939 62.2254 4
65.3134 59.0025 3.98607
74.6784 42.3946 4
73.7221 47.2057 4
69.9759 18.75 0
73.0099 25.446 2
68.6801 16.6661 2
71.1327 20.9142 2
67.8272 19.9285 2
74.6792 32.6053 4
73.7222 27.7943 4
72.1454 23.1494 4
70.6151 26.2215 3.98474
68.8868 21.9586 3.98499
67.2507 14.6715 4
66.6384 17.9709 3.98549
65.7997 21.0245 3.97747
67.2507 60.3285 0
71.1327 54.0858 2
68.6801 58.3339 2
65.694 62.2255 2
65.3145 59.0005 2
72.1454 51.8506 4
69.9759 56.25 4
68.8372 53.1128 3.98411
64.0165 64.0165 4
66.6119 57.1346 3.98561
63.8869 60.7673 3.98779
63.5031 57.7747 3.97999
60.3285 67.2507 4
74.6792 42.3947 2
73.7222 47.2057 2
74.9194 39.9526 4
74.2788 44.8158 4
72.1686 42.0857 3.98282
73.0099 49.554 4
71.25 46.5982 3.98377
73.0099 25.446 0
71.1327 20.9142 0
68.6801 16.6661 0
67.8267 19.926 0.0150546
74.6792 32.6053 2
73.7222 27.7943 2
67.2508 14.6715 2
72.1455 23.1494 2
70.6151 26.222 2
66.6392 17.9732 2
68.8871 21.9606 2
65.7993 21.0244 2
74.9197 35.0474 4
74.2794 30.1841 4
72.1853 32.9433 3.98327
71.279 28.4316 3.98429
69.8165 24.0603 3.98492
68.3489 26.9512 3.97562
66.7647 22.9331 3.97641
65.694 12.7746 4
65.3251 16.1019 3.98688
64.7168 19.1927 3.97903
63.8896 22.0342 3.97332
71.1327 54.0858 0
65.6939 62.2254 0
68.6801 58.3339 0
65.3134 59.0025 0.0139318
72.1455 51.8506 2
69.9759 56.25 2
68.8375 53.1106 2
64.0165 64.0165 2
66.6128 57.132 2
63.888 60.7662 2
63.5032 57.7755 2
62.2254 65.694 4
58.8952 65.4149 3.99237
69.7697 50.9886 3.98407
67.7847 55.1675 3.98463
66.6511 52.2096 3.97531
62.3372 62.4286 3.98986
64.6637 56.0337 3.97928
62.2051 59.4081 3.98123
61.8263 56.6852 3.97628
58.3339 68.6801 4
60.3285 67.2508 2
73.7221 47.2057 0
74.6784 42.3946 0
74.9197 39.9526 2
74.2794 44.8159 2
72.1684 42.0857 2
73.0099 49.554 2
71.2501 46.5978 2
75 37.5 4
72.4058 39.8023 3.98273
71.7832 44.3531 3.98345
69.8051 41.79 3.97356
70.5759 48.8134 3.98384
68.9141 46.0155 3.97465
74.6792 32.6053 0
73.7222 27.7943 0
67.2507 14.6715 0
72.1454 23.1494 0
70.6151 26.2215 0.0152567
68.8868 21.9586 0.0150121
66.6384 17.9709 0.0145148
65.7997 21.0245 0.0225294
74.9197 35.0474 2
74.2794 30.1841 2
72.1851 32.9434 2
71.279 28.4317 2
65.694 12.7745 2
65.3261 16.1033 2
69.8167 24.0616 2
68.3489 26.9514 2
64.7168 19.1921 2
66.7644 22.9333 2
63.8893 22.0339 2
72.4136 35.2242 3.98273
71.8045 30.6763 3.98361
69.8412 33.268 3.97424
68.9682 29.0378 3.97536
67.6132 24.912 3.97578
66.1968 27.6337 3.97216
64.0165 10.9835 4
64.7586 23.8295 3.97267
63.8913 14.3256 3.98842
63.5164 17.4431 3.98122
62.9103 20.3179 3.9745
62.0942 22.9423 3.97107
60.6848 11.0964 3.99062
57.6131 11.4435 3.98478
72.1454 51.8506 0
69.9759 56.25 0
68.8372 53.1128 0.0158935
64.0165 64.0165 0
63.8869 60.7673 0.0122064
66.6119 57.1346 0.0143868
63.5031 57.7747 0.0200116
62.2255 65.694 2
58.8957 65.4149 2
69.7699 50.9872 2
67.7853 55.1649 2
66.6508 52.2092 2
62.3381 62.428 2
64.6637 56.0342 2
62.2052 59.4091 2
61.8265 56.6862 2
60.6697 63.9779 3.99129
57.0259 66.7358 3.99302
57.559 63.6949 3.98649
67.509 50.1772 3.97467
65.7041 54.1742 3.97674
64.5387 51.3862 3.97118
60.7747 60.9417 3.98291
62.8234 55.071 3.97582
60.661 58.1644 3.97715
60.3307 55.7897 3.97536
56.25 69.9759 4
58.3339 68.6801 2
60.3285 67.2507 0
58.9219 9.65477 3.99151
62.2254 9.30607 4
73.0099 49.554 0
74.2788 44.8158 0
71.25 46.5982 0.0162315
72.1686 42.0857 0.0171802
74.9194 39.9526 0
75 37.5 2
72.4057 39.8024 2
71.7831 44.3527 2
69.8049 41.7898 2
70.5759 48.8126 2
68.9141 46.0152 2
72.4891 37.5121 3.98254
70.042 39.6575 3.9732
69.432 43.9081 3.9743
67.5982 41.4982 3.97008
68.2675 48.1077 3.97439
66.7119 45.4412 3.97124
74.9197 35.0474 0
74.2794 30.1841 0
72.1853 32.9433 0.0167301
71.279 28.4316 0.0157073
65.694 12.7746 0
65.3251 16.1019 0.0131236
69.8165 24.0603 0.0150832
68.3489 26.9512 0.0243775
66.7647 22.9331 0.0235855
64.7168 19.1927 0.0209699
63.8896 22.0342 0.0266768
72.4135 35.2241 2
71.8045 30.6765 2
69.841 33.2682 2
68.9683 29.0379 2
64.0165 10.9835 2
63.8922 14.3265 2
63.5166 17.4422 2
67.613 24.9122 2
66.1967 27.6337 2
62.9103 20.3171 2
64.7583 23.8293 2
62.0941 22.9421 2
60.6854 11.0969 2
57.6133 11.4428 2
70.0586 35.3918 3.97332
69.4685 31.1492 3.97445
67.6567 33.5903 3.97086
66.7744 29.6218 3.97149
65.5259 25.6987 3.97228
64.1483 28.2544 3.9712
62.3426 12.6536 3.98956
62.858 24.6367 3.97113
62.2015 15.7804 3.98269
61.8174 18.6804 3.97688
61.2197 21.3397 3.97166
60.4253 23.7273 3.97052
59.2473 12.775 3.98324
55.875 10.2302 3.98631
56.406 13.1083 3.98147
69.7697 50.9886 0.0159333
62.2254 65.694 0
58.8952 65.4149 0.00763227
67.7847 55.1675 0.0153749
66.6511 52.2096 0.0246866
62.3372 62.4286 0.010142
62.2051 59.4081 0.0187716
64.6637 56.0337 0.0207195
61.8263 56.6852 0.023718
60.6703 63.9776 2
57.0263 66.7359 2
57.5591 63.696 2
67.5089 50.1767 2
65.7039 54.1742 2
64.5385 51.3862 2
60.7749 60.9428 2
62.8235 55.0718 2
60.6613 58.1655 2
60.3311 55.7904 2
55.0713 67.9328 3.99325
59.2205 62.3696 3.98405
55.8058 64.9128 3.9886
56.3281 62.0948 3.98269
65.3329 49.4093 3.97071
63.7076 53.2937 3.97216
62.4413 50.6532 3.96918
59.3352 59.5621 3.97999
61.0794 54.3122 3.9747
59.2914 57.0168 3.97391
59.2443 55.1859 3.9767
48.1038 68.5804 3.9896
50.9489 69.9324 3.99352
54.0858 71.1327 4
56.25 69.976 2
58.3339 68.6801 0
57.0592 8.33489 3.99183
60.3285 7.74928 4
58.9225 9.65506 2
62.2255 9.30602 2
70.5759 48.8134 0.016158
71.7832 44.3531 0.0165478
68.9141 46.0155 0.0253482
69.8051 41.79 0.0264355
72.4058 39.8023 0.0172703
75 37.5 0
72.4889 37.5121 2
70.0419 39.6574 2
69.4319 43.9079 2
67.598 41.4981 2
68.2674 48.1073 2
66.7118 45.4411 2
70.13 37.5215 3.97328
67.8351 39.5126 3.96981
67.2253 43.4709 3.97066
65.5565 41.2105 3.96991
66.0701 47.419 3.97083
64.6543 44.8496 3.97038
72.4136 35.2242 0.0172669
71.8045 30.6763 0.0163936
69.8412 33.268 0.0257587
68.9682 29.0378 0.0246393
64.0165 10.9835 0
63.8913 14.3256 0.0115847
63.5164 17.4431 0.0187847
67.6132 24.912 0.0242216
66.1968 27.6337 0.0278406
64.7586 23.8295 0.0273326
62.9103 20.3179 0.0255036
62.0942 22.9423 0.0289264
60.6848 11.0964 0.00938359
57.6131 11.4435 0.0152215
70.0585 35.3919 2
69.4686 31.1493 2
67.6566 33.5903 2
66.7745 29.6217 2
62.3433 12.6543 2
62.2015 15.7796 2
61.8177 18.6792 2
65.5257 25.6986 2
64.1482 28.2543 2
61.2199 21.3392 2
62.8578 24.6366 2
60.4252 23.7271 2
59.2473 12.7744 2
56.406 13.1073 2
55.8751 10.2294 2
67.871 35.5472 3.96999
67.2666 31.6218 3.97069
65.6989 33.9267 3.97035
64.6648 30.191 3.97031
63.5394 26.4134 3.97121
62.2592 28.7766 3.97174
60.7768 14.2196 3.98298
61.0447 25.3372 3.97114
60.6158 17.1226 3.97967
60.2252 19.8129 3.97377
59.6612 22.2577 3.96987
58.9759 24.3203 3.97198
54.038 9.13338 3.98711
57.9114 14.3271 3.98134
54.7873 12.0075 3.98288
55.3132 14.6407 3.98003
67.509 50.1772 0.0253339
57.0259 66.7358 0.00698237
60.6697 63.9779 0.00870679
57.559 63.6949 0.0135108
65.7041 54.1742 0.0232639
64.5387 51.3862 0.0288202
60.7747 60.9417 0.0170929
60.661 58.1644 0.0228514
62.8234 55.071 0.0241791
60.3307 55.7897 0.0246412
55.0717 67.9329 2
59.2206 62.3707 2
55.8057 64.9137 2
56.3281 62.0962 2
65.3328 49.4092 2
63.7075 53.2941 2
62.4412 50.6532 2
59.3355 59.5635 2
61.0797 54.3128 2
59.2919 57.0176 2
59.2449 55.1863 2
53.0431 69.0006 3.99344
53.9681 66.0149 3.98926
57.882 60.8748 3.98135
54.6849 63.2121 3.98475
55.2124 60.6219 3.98082
63.1944 48.6622 3.96921
61.741 52.5764 3.96982
60.2708 50.0199 3.96864
58.0198 58.266 3.97633
59.3281 53.9489 3.97386
58.1278 55.8138 3.97209
50.1105 67.8583 3.98956
47.4642 66.5842 3.98715
46.0573 69.1597 3.98963
48.1037 68.5809 2
48.803 70.7237 3.99361
50.9492 69.9325 2
51.8506 72.1454 4
54.0858 71.1327 2
56.25 69.9759 0
55.1035 7.13945 3.99213
58.3339 6.31992 4
57.0597 8.33494 2
60.3286 7.74926 2
58.9219 9.65477 0.00849206
62.2254 9.30607 0
68.2675 48.1077 0.0256104
69.432 43.9081 0.025698
66.7119 45.4412 0.0287559
67.5982 41.4982 0.0299209
70.042 39.6575 0.0268023
72.4891 37.5121 0.0174622
70.1299 37.5215 2
67.8351 39.5126 2
67.2253 43.4709 2
65.5563 41.2104 2
66.07 47.4189 2
64.6542 44.8496 2
67.9314 37.5219 3.96987
65.7869 39.3706 3.96977
65.1775 43.0262 3.97011
63.748 40.9303 3.97128
63.9665 46.7178 3.96976
62.8088 44.2175 3.97162
70.0586 35.3918 0.0266789
69.4685 31.1492 0.025553
67.6567 33.5903 0.0291352
66.7744 29.6218 0.0285144
62.3426 12.6536 0.0104439
62.2015 15.7804 0.0173105
61.8174 18.6804 0.0231152
65.5259 25.6987 0.0277167
64.1483 28.2544 0.028798
62.858 24.6367 0.0288731
61.2197 21.3397 0.0283373
60.4253 23.7273 0.0294812
59.2473 12.775 0.0167557
56.406 13.1083 0.0185293
55.875 10.2302 0.0136948
67.871 35.5472 2
67.2667 31.6217 2
65.6988 33.9266 2
64.6649 30.1908 2
60.7769 14.2189 2
60.6158 17.1214 2
60.2256 19.8119 2
63.5392 26.4133 2
62.2591 28.7765 2
59.6614 22.2573 2
61.0446 25.3372 2
58.9759 24.3206 2
57.9112 14.3263 2
55.313 14.6398 2
54.0381 9.13266 2
54.7873 12.0065 2
65.8761 35.6665 3.96968
65.187 32.1536 3.96977
64.281 34.2494 3.97079
62.5951 30.6349 3.97103
61.6518 27.0713 3.97127
60.8495 29.1394 3.97334
59.3125 15.6639 3.98098
59.3269 25.7961 3.97239
59.126 18.3508 3.97755
58.7403 20.8523 3.97054
58.2822 23.0931 3.96948
57.9636 24.6646 3.97232
52.1127 8.15163 3.98777
53.0583 11.0136 3.9838
56.6776 15.7371 3.98049
53.8098 13.6756 3.98123
54.3767 15.9931 3.98002
55.0713 67.9328 0.00675341
65.3329 49.4093 0.0292882
55.8058 64.9128 0.0113967
59.2205 62.3696 0.015946
56.3281 62.0948 0.0173069
63.7076 53.2937 0.0278448
62.4413 50.6532 0.0308163
59.3352 59.5621 0.0200113
59.2914 57.0168 0.0260892
61.0794 54.3122 0.025299
59.2443 55.1859 0.023295
53.0434 69.0007 2
53.968 66.0157 2
57.882 60.8761 2
54.6848 63.2133 2
55.2125 60.6233 2
63.1943 48.6622 2
61.7411 52.5767 2
60.2707 50.0198 2
58.0204 58.2675 2
59.3287 53.9491 2
58.1284 55.8138 2
52.0716 67.0015 3.98949
52.9543 64.2227 3.98635
[...]
POINT_DATA 3012
SCALARS rho_c_phif_kappa float 4
LOOKUP_TABLE default
1000 0 1.0009 0.251596
1000 0 1.00079 0.251842
1000 0 1.0009 0.251375
1000 0 1.0009 0.251664
1000 0 1.0009 0.251558
1000 0 1.0009 0.251632
1006.11 6.97768e-09 1.00098 0.251275
1000 0 1.00079 0.251846
1000 0 1.0008 0.251628
1000 0 1.00079 0.25167
1000 0 1.0009 0.251301
1006.11 6.87745e-09 1.00104 0.251137
1000 0 1.0009 0.251725
1000 0 1.0009 0.251769
1000 0 1.0009 0.251157
1000 0 1.0009 0.251613
1000 0 1.0009 0.251364
1000 0 1.0009 0.251401
1006.12 6.98758e-09 1.00098 0.2514
1000 0 1.0008 0.251903
1000 0 1.0009 0.251764
1000 0 1.0009 0.251579
1006.08 7.0262e-09 1.00098 0.251428
1006.1 6.99884e-09 1.00098 0.251327
1000 0 1.0009 0.251591
1006.13 6.95534e-09 1.00098 0.251188
1005.86 6.83402e-09 1.00105 0.251111
1000 0 1.00079 0.251852
1000 0 1.00085 0.25152
1000 0 1.00085 0.251508
1000 0 1.00079 0.251881
1006.11 6.88693e-09 1.00104 0.251151
1000 0 1.0009 0.251391
1000 0 1.0009 0.251253
1006.1 7.00552e-09 1.00098 0.251359
1000 0 1.00079 0.251779
1006.1 6.91857e-09 1.00098 0.251374
1006.13 6.85367e-09 1.00104 0.251258
1005.88 6.86546e-09 1.00104 0.251196
1000 0 1.00079 0.252
1000 0 1.0008 0.251914
1000 0 1.00085 0.251808
1000 0 1.0008 0.251934
1000 0 1.0009 0.251854
1006.04 7.03207e-09 1.00103 0.25155
1000 0 1.0008 0.251835
1006.08 7.04808e-09 1.00098 0.251489
1000 0 1.0009 0.251584
1000 0 1.0009 0.251241
1000 0 1.0009 0.251113
1006.11 6.97768e-09 1.00098 0.25152
1000 0 1.00085 0.251979
1000 0 1.0009 0.251744
1000 0 1.0009 0.251333
1000 0 1.0009 0.25148
1006.04 7.0342e-09 1.00098 0.251447
1006.14 6.96503e-09 1.00098 0.251338
1006.1 7.00789e-09 1.00098 0.251418
1005.85 6.83128e-09 1.00105 0.251045
1000 0 1.0008 0.25194
1000 0 1.0009 0.25183
1006.03 7.02175e-09 1.00098 0.251593
1006.07 7.03108e-09 1.00097 0.251498
1006.09 7.01588e-09 1.00098 0.251363
1005.83 6.79474e-09 1.00104 0.250888
1005.85 6.81897e-09 1.00105 0.251
1000 0 1.0009 0.251501
1006.15 6.93374e-09 1.00098 0.251131
1005.87 6.84956e-09 1.00105 0.251127
1005.75 6.69319e-09 1.00103 0.250247
1000 0 1.0008 0.251718
1000 0 1.00079 0.251861
1000 0 1.00079 0.251817
1006.11 6.87745e-09 1.00104 0.251169
1000 0 1.0008 0.251697
1000 0 1.0008 0.251728
1006.1 7.01491e-09 1.00103 0.251298
1000 0 1.00084 0.251532
1006.11 6.92851e-09 1.00104 0.251218
1006.13 6.86135e-09 1.00101 0.251315
1005.87 6.8625e-09 1.00104 0.251218
1000 0 1.00079 0.251961
1006.26 6.85809e-09 1.00104 0.25134
1006.1 7.03284e-09 1.00103 0.251432
1006.1 6.96553e-09 1.00104 0.251402
1005.84 6.8123e-09 1.00104 0.250892
1006.17 6.84235e-09 1.00099 0.251408
1005.87 6.85353e-09 1.00104 0.251129
1005.87 6.87311e-09 1.00104 0.25124
1005.77 6.71956e-09 1.00104 0.250819
1000 0 1.00079 0.25203
1000 0 1.00079 0.251992
1000 0 1.0008 0.251811
1000 0 1.0008 0.251918
1000 0 1.0008 0.251932
1000 0 1.00085 0.251875
1006 7.04174e-09 1.00101 0.251507
1000 0 1.00085 0.251702
1006.03 7.05672e-09 1.00101 0.251481
1000 0 1.0008 0.251952
1006.03 7.01965e-09 1.00103 0.251492
1006.06 7.04215e-09 1.00098 0.251504
1005.83 6.7852e-09 1.00103 0.250711
1006.09 7.0464e-09 1.00098 0.251384
1005.83 6.78869e-09 1.00104 0.250884
1000 0 1.0009 0.25172
1000 0 1.0009 0.251761
1000 0 1.0009 0.25108
1000 0 1.0009 0.251387
1006.08 7.0262e-09 1.00098 0.251455
1006.1 6.99884e-09 1.00098 0.251507
1006.13 6.95534e-09 1.00098 0.251481
1005.86 6.83402e-09 1.00105 0.250983
1000 0 1.0008 0.251918
1000 0 1.0009 0.251827
1006 7.03164e-09 1.001 0.251502
1006.02 7.03948e-09 1.00097 0.251509
1000 0 1.00084 0.251542
1006.15 6.94182e-09 1.00098 0.251304
1006.07 7.02415e-09 1.00098 0.251415
1005.84 6.79247e-09 1.00104 0.250846
1005.86 6.84683e-09 1.00105 0.251066
1005.85 6.81628e-09 1.00105 0.250979
1005.75 6.69389e-09 1.00103 0.25024
1006.02 7.0157e-09 1.00103 0.251563
1006.05 7.0292e-09 1.00097 0.251524
1005.83 6.78826e-09 1.00104 0.250771
1005.83 6.78933e-09 1.00104 0.250841
1005.84 6.80524e-09 1.00104 0.250899
1005.72 6.65754e-09 1.00103 0.250112
1000 0 1.00079 0.251867
1005.74 6.67952e-09 1.00103 0.250137
1006.18 6.91277e-09 1.00104 0.251112
1005.87 6.8618e-09 1.00104 0.251168
1005.76 6.7078e-09 1.00104 0.250374
1005.76 6.70316e-09 1.00103 0.249568
1006.24 6.89428e-09 1.00104 0.251373
1005.84 6.86473e-09 1.00104 0.251838
1000 0 1.0008 0.251707
1000 0 1.00079 0.251773
1006.1 7.00552e-09 1.00103 0.251313
1000 0 1.00079 0.251898
1006.13 6.85367e-09 1.00104 0.251171
1006.1 6.91857e-09 1.00104 0.251227
1005.88 6.86546e-09 1.00104 0.251237
1000 0 1.00079 0.251955
1006.25 6.86197e-09 1.00104 0.251346
1006.08 7.04131e-09 1.00101 0.251425
1006.11 6.97546e-09 1.00101 0.251392
1005.84 6.80966e-09 1.00104 0.250908
1006.16 6.84803e-09 1.00104 0.251217
1005.87 6.85054e-09 1.00104 0.251166
1005.87 6.87066e-09 1.00104 0.251256
1005.77 6.71993e-09 1.00104 0.250794
1006.21 6.84652e-09 1.00104 0.251292
1006.3 6.87065e-09 1.00104 0.251317
1005.84 6.86965e-09 1.00104 0.251747
1005.83 6.79617e-09 1.00104 0.250889
1005.86 6.83529e-09 1.00104 0.250971
1005.74 6.67463e-09 1.00103 0.250081
1005.87 6.87415e-09 1.00104 0.251488
1005.77 6.70952e-09 1.00104 0.250542
1005.78 6.72865e-09 1.00104 0.250856
1005.79 6.72918e-09 1.00104 0.250183
1000 0 1.00079 0.252051
1000 0 1.00079 0.252019
1000 0 1.00079 0.251983
1006.28 6.89804e-09 1.00104 0.251382
1000 0 1.00079 0.251923
1000 0 1.0008 0.251754
1000 0 1.0008 0.251866
1006.08 7.04808e-09 1.00103 0.251493
1006.04 7.03207e-09 1.00103 0.251547
1000 0 1.0008 0.251949
1000 0 1.0008 0.251943
1005.99 7.02982e-09 1.00103 0.251516
1006.03 7.0512e-09 1.00101 0.251505
1005.84 6.78266e-09 1.00103 0.250715
1006.06 7.05458e-09 1.00103 0.251411
1005.84 6.78623e-09 1.00104 0.250876
1006.02 7.01211e-09 1.00103 0.251527
1005.83 6.78205e-09 1.00103 0.250632
1005.83 6.78815e-09 1.00104 0.250814
1005.71 6.64411e-09 1.00103 0.250064
1005.83 6.78997e-09 1.00104 0.2509
1005.72 6.6523e-09 1.00103 0.250143
1000 0 1.0008 0.251922
1000 0 1.0009 0.251853
1006.03 7.02175e-09 1.00102 0.251575
1006.07 7.03108e-09 1.00097 0.251507
1000 0 1.00079 0.251698
1006.15 6.93374e-09 1.00099 0.25148
1006.09 7.01588e-09 1.00098 0.251462
1005.83 6.79474e-09 1.00104 0.250802
1005.85 6.81897e-09 1.00105 0.250964
1005.87 6.84956e-09 1.00105 0.251001
1005.75 6.69319e-09 1.00103 0.250233
1005.98 7.02596e-09 1.00103 0.251538
1006.02 7.03821e-09 1.00097 0.251541
1005.84 6.7858e-09 1.00104 0.250758
1005.84 6.78703e-09 1.00104 0.250851
1000 0 1.00079 0.25188
1006.17 6.91952e-09 1.00101 0.25125
1005.87 6.85904e-09 1.00105 0.251168
1005.84 6.80277e-09 1.00104 0.250872
1005.72 6.65778e-09 1.00103 0.250057
1005.76 6.70856e-09 1.00104 0.250355
1005.74 6.68001e-09 1.00103 0.250154
1005.76 6.70345e-09 1.00103 0.249575
1006.23 6.8996e-09 1.00104 0.25132
1005.84 6.86285e-09 1.00104 0.251797
1005.83 6.78368e-09 1.00103 0.250666
1005.83 6.78827e-09 1.00104 0.250841
1005.72 6.64714e-09 1.00103 0.250151
1005.72 6.6525e-09 1.00103 0.250051
1005.73 6.66714e-09 1.00103 0.250069
1005.73 6.67069e-09 1.00103 0.249518
1006.21 6.89808e-09 1.00104 0.251259
1005.75 6.6903e-09 1.00103 0.24947
1005.86 6.86703e-09 1.00104 0.251417
1005.77 6.72104e-09 1.00104 0.250664
1005.77 6.71792e-09 1.00104 0.249715
1005.75 6.69703e-09 1.00103 0.248895
1005.85 6.86554e-09 1.00104 0.251708
1005.82 6.86196e-09 1.00104 0.251964
1005.78 6.73047e-09 1.00104 0.251534
1006.1 7.03284e-09 1.00103 0.251382
1000 0 1.00079 0.251948
1006.26 6.85809e-09 1.00104 0.251342
1006.1 6.96553e-09 1.00104 0.251262
1005.84 6.8123e-09 1.00104 0.250925
1006.17 6.84235e-09 1.00104 0.251281
1005.87 6.87311e-09 1.00104 0.251277
1005.87 6.85353e-09 1.00104 0.251195
1005.77 6.71956e-09 1.00104 0.250772
1006.2 6.85124e-09 1.00104 0.251328
1006.29 6.87406e-09 1.00104 0.251292
1005.84 6.8677e-09 1.00104 0.251788
1005.84 6.79369e-09 1.00104 0.250886
1005.86 6.83245e-09 1.00104 0.251005
1005.74 6.67537e-09 1.00103 0.250079
1005.86 6.87187e-09 1.00104 0.251491
1005.77 6.70998e-09 1.00104 0.250563
1005.78 6.72914e-09 1.00104 0.250858
1005.79 6.72922e-09 1.00104 0.250119
1006.35 6.8848e-09 1.00104 0.251262
1005.85 6.87108e-09 1.00104 0.251684
1005.83 6.86735e-09 1.00104 0.251846
1005.78 6.73437e-09 1.00104 0.251568
1005.73 6.66066e-09 1.00103 0.250093
1005.75 6.68848e-09 1.00103 0.250215
1005.75 6.70246e-09 1.00103 0.249399
1005.78 6.73342e-09 1.00104 0.251163
1005.78 6.72356e-09 1.00104 0.249766
1005.79 6.73596e-09 1.00104 0.250092
1005.78 6.73328e-09 1.00104 0.249538
1005.79 6.85752e-09 1.00104 0.251739
1006.43 6.91346e-09 1.00105 0.251184
1000 0 1.00079 0.252075
1000 0 1.00079 0.252046
1000 0 1.00079 0.252013
1006.33 6.91087e-09 1.00104 0.251316
1000 0 1.00079 0.251967
1006.28 6.90249e-09 1.00104 0.25137
1000 0 1.00079 0.251926
1006.09 7.0464e-09 1.00103 0.251444
1006.06 7.04215e-09 1.00103 0.251533
1005.83 6.78869e-09 1.00104 0.250869
1005.83 6.7852e-09 1.00103 0.25072
1006.03 7.01965e-09 1.00103 0.251538
1000 0 1.0008 0.251953
1005.96 7.02309e-09 1.00103 0.251527
1005.83 6.77949e-09 1.00103 0.250634
1005.83 6.78562e-09 1.00104 0.250815
1005.71 6.64444e-09 1.00103 0.250058
1005.83 6.78759e-09 1.00104 0.25089
1005.72 6.6525e-09 1.00103 0.250142
1005.83 6.78213e-09 1.00103 0.250624
1005.71 6.63816e-09 1.00103 0.249999
1005.72 6.64891e-09 1.00103 0.250123
1005.72 6.66918e-09 1.00103 0.249565
1005.72 6.6569e-09 1.00103 0.250131
1005.73 6.67193e-09 1.00103 0.249555
1006.02 7.0157e-09 1.00103 0.251506
1006.05 7.0292e-09 1.00097 0.251546
1005.83 6.78826e-09 1.00103 0.250743
1005.83 6.78933e-09 1.00104 0.250857
1000 0 1.00079 0.2519
1006.18 6.91277e-09 1.00099 0.251317
1005.87 6.8618e-09 1.00105 0.251161
1005.84 6.80524e-09 1.00104 0.250847
1005.72 6.65754e-09 1.00103 0.250001
1005.74 6.67952e-09 1.00103 0.250169
1005.76 6.7078e-09 1.00104 0.250335
1005.76 6.70316e-09 1.00103 0.249581
1006.24 6.89428e-09 1.00104 0.251281
1005.84 6.86473e-09 1.00104 0.251762
1005.84 6.7811e-09 1.00103 0.250661
1005.84 6.78606e-09 1.00104 0.250831
1005.71 6.6475e-09 1.00103 0.250124
1005.72 6.65272e-09 1.00103 0.250085
1006.2 6.90403e-09 1.00104 0.251212
1005.86 6.8645e-09 1.00104 0.251394
1005.77 6.72138e-09 1.00104 0.250707
1005.73 6.66753e-09 1.00103 0.250079
1005.73 6.67075e-09 1.00103 0.249468
1005.78 6.71837e-09 1.00104 0.249665
1005.75 6.69052e-09 1.00103 0.249471
1005.76 6.69747e-09 1.00103 0.248871
1005.85 6.86365e-09 1.00104 0.251709
1005.78 6.73077e-09 1.00104 0.251556
1005.82 6.86013e-09 1.00104 0.251906
1005.71 6.64396e-09 1.00103 0.250078
1005.72 6.64745e-09 1.00103 0.250135
1005.72 6.66048e-09 1.00103 0.249694
1005.73 6.66144e-09 1.00103 0.249516
1005.74 6.67873e-09 1.00103 0.249372
1005.72 6.65906e-09 1.00103 0.24905
1005.86 6.86692e-09 1.00104 0.251583
1005.74 6.68318e-09 1.00103 0.248838
1005.78 6.72784e-09 1.00104 0.251171
1005.79 6.73145e-09 1.00104 0.24993
1005.77 6.71624e-09 1.00103 0.248905
1005.75 6.68527e-09 1.00103 0.248214
1005.81 6.85802e-09 1.00104 0.252016
1005.78 6.72943e-09 1.00104 0.251567
1005.78 6.7309e-09 1.00104 0.25167
1005.8 6.7472e-09 1.00104 0.251175
1005.83 6.79617e-09 1.00104 0.250884
1006.3 6.87065e-09 1.00104 0.251257
1006.21 6.84652e-09 1.00104 0.25138
1005.84 6.86965e-09 1.00104 0.251839
1005.86 6.83529e-09 1.00104 0.251036
1005.74 6.67463e-09 1.00103 0.250075
1005.87 6.87415e-09 1.00104 0.251491
1005.78 6.72865e-09 1.00104 0.250856
1005.77 6.70952e-09 1.00104 0.250587
1005.79 6.72918e-09 1.00104 0.250055
1006.34 6.88804e-09 1.00104 0.251235
1005.85 6.869e-09 1.00104 0.251699
1005.83 6.86559e-09 1.00104 0.25189
1005.78 6.73429e-09 1.00104 0.251559
1005.73 6.6609e-09 1.00103 0.250087
1005.75 6.68922e-09 1.00103 0.250219
1005.75 6.70272e-09 1.00103 0.249395
1005.78 6.73364e-09 1.00104 0.251164
1005.78 6.7238e-09 1.00104 0.249806
1005.8 6.73655e-09 1.00104 0.250072
1005.78 6.73342e-09 1.00104 0.249591
1006.39 6.89777e-09 1.00104 0.251219
1005.82 6.86408e-09 1.00104 0.251902
1005.78 6.73343e-09 1.00104 0.251464
1005.78 6.73419e-09 1.00104 0.251761
1005.81 6.75001e-09 1.00104 0.251057
1005.74 6.72228e-09 1.00103 0.249488
1005.77 6.7241e-09 1.00103 0.249409
1005.74 6.6424e-09 1.00103 0.24869
1005.8 6.7419e-09 1.00104 0.250387
1005.78 6.72702e-09 1.00103 0.248927
1005.79 6.76821e-09 1.00104 0.24935
1005.8 6.8597e-09 1.00104 0.251796
1005.79 6.7313e-09 1.00104 0.252185
1005.78 6.85431e-09 1.00104 0.251702
1005.79 6.85629e-09 1.00104 0.251746
1006.46 6.92901e-09 1.00099 0.251393
1006.42 6.91647e-09 1.00102 0.25133
1000 0 1.0009 0.251631
1000 0 1.00079 0.25207
1000 0 1.00079 0.252041
1006.38 6.92914e-09 1.00104 0.251259
1000 0 1.00079 0.252001
1006.32 6.91472e-09 1.00104 0.251341
1000 0 1.00079 0.251971
1006.28 6.89804e-09 1.00104 0.251355
1000 0 1.00079 0.251931
1005.83 6.78997e-09 1.00104 0.250879
1005.83 6.78815e-09 1.00104 0.250816
1005.72 6.6523e-09 1.00103 0.250141
1005.71 6.64411e-09 1.00103 0.250053
1005.83 6.78205e-09 1.00103 0.250636
1006.02 7.01211e-09 1.00103 0.251513
1005.84 6.77936e-09 1.00103 0.250621
1005.71 6.63847e-09 1.00103 0.249997
1005.72 6.64918e-09 1.00103 0.250119
1005.72 6.66926e-09 1.00103 0.249521
1005.72 6.65718e-09 1.00103 0.250124
1005.73 6.67182e-09 1.00103 0.249555
1005.71 6.63485e-09 1.00103 0.249996
1005.72 6.68015e-09 1.00103 0.249522
1005.73 6.66683e-09 1.00103 0.24955
1005.72 6.63193e-09 1.00103 0.249098
1005.73 6.67478e-09 1.00103 0.249551
1005.72 6.65922e-09 1.00103 0.248933
1005.83 6.78368e-09 1.00103 0.25066
1005.83 6.78827e-09 1.00104 0.250819
1005.72 6.64714e-09 1.00103 0.250098
1005.72 6.6525e-09 1.00103 0.250118
1006.21 6.89808e-09 1.00104 0.251168
1005.86 6.86703e-09 1.00104 0.251378
1005.77 6.72104e-09 1.00104 0.250754
1005.73 6.66714e-09 1.00103 0.250091
1005.73 6.67069e-09 1.00103 0.249418
1005.75 6.6903e-09 1.00103 0.249473
1005.77 6.71792e-09 1.00103 0.249616
1005.75 6.69703e-09 1.00103 0.248843
1005.85 6.86554e-09 1.00104 0.251703
1005.78 6.73047e-09 1.00104 0.251573
1005.82 6.86196e-09 1.00104 0.251858
1005.71 6.64428e-09 1.00103 0.250058
1005.72 6.64768e-09 1.00103 0.250123
1005.72 6.66047e-09 1.00103 0.249666
1005.73 6.66126e-09 1.00103 0.249529
1005.86 6.86469e-09 1.00104 0.251595
1005.78 6.72766e-09 1.00104 0.251172
1005.79 6.73171e-09 1.00104 0.249967
1005.74 6.67873e-09 1.00103 0.249416
1005.72 6.65882e-09 1.00103 0.249003
1005.77 6.71687e-09 1.00103 0.248856
1005.74 6.68322e-09 1.00103 0.248851
1005.75 6.68519e-09 1.00103 0.248166
1005.78 6.72956e-09 1.00104 0.251566
1005.8 6.74736e-09 1.00104 0.251176
1005.81 6.85637e-09 1.00104 0.251977
1005.78 6.7308e-09 1.00104 0.251698
1005.72 6.66496e-09 1.00103 0.249647
1005.73 6.67488e-09 1.00103 0.249621
1005.72 6.6725e-09 1.00103 0.249265
1005.72 6.67037e-09 1.00103 0.249016
1005.73 6.67655e-09 1.00103 0.248833
1005.72 6.66598e-09 1.00103 0.2486
1005.78 6.7289e-09 1.00104 0.251476
1005.74 6.67677e-09 1.00103 0.248085
1005.8 6.73933e-09 1.00104 0.250508
1005.79 6.74963e-09 1.00104 0.249144
1005.76 6.68267e-09 1.00103 0.248116
1005.75 6.69104e-09 1.00103 0.247537
1005.8 6.85463e-09 1.00104 0.251986
1005.78 6.72908e-09 1.00104 0.251899
1005.8 6.74562e-09 1.00104 0.251264
1005.81 6.74894e-09 1.00104 0.251166
1005.8 6.74972e-09 1.00104 0.251027
1006.35 6.8848e-09 1.00104 0.251208
1005.73 6.66066e-09 1.00103 0.25008
1005.83 6.86735e-09 1.00104 0.251946
1005.85 6.87108e-09 1.00104 0.251704
1005.78 6.73437e-09 1.00104 0.251551
1005.75 6.68848e-09 1.00103 0.25022
1005.75 6.70246e-09 1.00103 0.249389
1005.78 6.73342e-09 1.00104 0.251163
1005.79 6.73596e-09 1.00104 0.250042
1005.78 6.72356e-09 1.00104 0.249846
1005.78 6.73328e-09 1.00104 0.249646
1006.38 6.90095e-09 1.00104 0.251199
1005.82 6.86251e-09 1.00104 0.251927
1005.78 6.73358e-09 1.00104 0.251465
1005.78 6.73389e-09 1.00104 0.251768
1005.81 6.74958e-09 1.00104 0.251039
1005.74 6.72338e-09 1.00103 0.249487
1005.77 6.72422e-09 1.00103 0.249396
1005.74 6.64329e-09 1.00103 0.24865
1005.8 6.7417e-09 1.00104 0.250397
1005.78 6.7267e-09 1.00104 0.249012
1005.79 6.76831e-09 1.00104 0.249369
1005.81 6.86212e-09 1.00104 0.251859
1005.78 6.73305e-09 1.00104 0.251976
1005.8 6.74615e-09 1.00104 0.250872
1005.81 6.74837e-09 1.00104 0.251199
1005.8 6.75809e-09 1.00104 0.250688
1005.71 6.41673e-09 1.00103 0.249016
1005.76 6.68828e-09 1.00103 0.248406
1005.74 6.71487e-09 1.00103 0.247586
1005.8 6.78801e-09 1.00104 0.24955
1005.77 6.64126e-09 1.00104 0.248482
1005.8 6.85845e-09 1.00104 0.251803
1005.78 6.73181e-09 1.00104 0.252138
1005.79 6.73123e-09 1.00104 0.252183
1005.81 6.75192e-09 1.00104 0.251898
1005.79 6.73046e-09 1.00104 0.25218
1005.76 6.84994e-09 1.00104 0.25169
1005.78 6.85322e-09 1.00104 0.251707
1006.5 6.94921e-09 1.00099 0.251374
1005.79 6.85752e-09 1.00104 0.251754
1006.46 6.93191e-09 1.00099 0.25144
1000 0 1.0009 0.251641
1006.43 6.91346e-09 1.00099 0.25143
1000 0 1.00085 0.251776
1000 0 1.00079 0.252067
1006.42 6.94832e-09 1.00105 0.251216
1006.37 6.93277e-09 1.00104 0.251284
1000 0 1.00079 0.252029
1000 0 1.00079 0.252006
1006.33 6.91087e-09 1.00104 0.251355
1000 0 1.00079 0.251975
1005.72 6.6569e-09 1.00103 0.250118
1005.72 6.64891e-09 1.00103 0.250117
1005.73 6.67193e-09 1.00103 0.249556
1005.72 6.66918e-09 1.00103 0.249478
1005.71 6.63816e-09 1.00103 0.249994
1005.83 6.78213e-09 1.00103 0.250617
1005.71 6.63531e-09 1.00103 0.249995
1005.72 6.68037e-09 1.00103 0.249542
1005.73 6.6668e-09 1.00103 0.249552
1005.72 6.63219e-09 1.00103 0.249028
1005.73 6.67481e-09 1.00103 0.249547
1005.72 6.65934e-09 1.00103 0.248893
1005.72 6.71017e-09 1.00103 0.249609
1005.71 6.58434e-09 1.00103 0.249196
1005.72 6.66578e-09 1.00103 0.248916
1005.73 6.65148e-09 1.00103 0.248697
1005.73 6.68493e-09 1.00103 0.249001
1005.72 6.60427e-09 1.00103 0.248392
1005.71 6.64396e-09 1.00103 0.250037
1005.72 6.64745e-09 1.00103 0.250112
1005.72 6.66048e-09 1.00103 0.249638
1005.73 6.66144e-09 1.00103 0.249542
1005.86 6.86692e-09 1.00104 0.251605
1005.78 6.72784e-09 1.00104 0.251171
1005.79 6.73145e-09 1.00104 0.25
1005.74 6.67873e-09 1.00103 0.24946
1005.72 6.65906e-09 1.00103 0.248955
1005.74 6.68318e-09 1.00103 0.248862
1005.77 6.71624e-09 1.00103 0.248811
1005.75 6.68527e-09 1.00103 0.248111
1005.78 6.72943e-09 1.00104 0.25157
1005.8 6.7472e-09 1.00104 0.251182
1005.81 6.85802e-09 1.00104 0.25194
1005.78 6.7309e-09 1.00104 0.251727
1005.72 6.66534e-09 1.00103 0.249653
1005.73 6.67536e-09 1.00103 0.249625
1005.72 6.67335e-09 1.00103 0.249273
1005.72 6.67137e-09 1.00103 0.249042
1005.78 6.72879e-09 1.00104 0.251482
1005.8 6.73921e-09 1.00104 0.250565
1005.79 6.75042e-09 1.00104 0.249109
1005.73 6.67734e-09 1.00103 0.248876
1005.72 6.66739e-09 1.00103 0.2486
1005.76 6.68334e-09 1.00103 0.248109
1005.74 6.67796e-09 1.00103 0.248086
1005.75 6.69164e-09 1.00103 0.247562
1005.8 6.74535e-09 1.00104 0.251271
1005.8 6.74958e-09 1.00104 0.251026
1005.81 6.7488e-09 1.00104 0.251156
1005.8 6.8532e-09 1.00104 0.251964
1005.78 6.72896e-09 1.00104 0.251919
1005.72 6.59417e-09 1.00103 0.249203
1005.71 6.58782e-09 1.00103 0.249022
1005.71 6.59994e-09 1.00103 0.248487
1005.72 6.61431e-09 1.00103 0.24821
1005.8 6.74341e-09 1.00104 0.251095
1005.73 6.6214e-09 1.00103 0.246842
1005.8 6.77708e-09 1.00104 0.249819
1005.77 6.64897e-09 1.00104 0.248223
1005.76 6.72558e-09 1.00103 0.247333
1005.79 6.84992e-09 1.00104 0.251927
1005.78 6.72447e-09 1.00104 0.252051
1005.81 6.75542e-09 1.00104 0.251361
1005.8 6.75304e-09 1.00104 0.251081
1005.8 6.75805e-09 1.00104 0.250804
1005.8 6.74883e-09 1.00104 0.250982
1006.39 6.89777e-09 1.00104 0.251177
1005.82 6.86408e-09 1.00104 0.251947
1005.74 6.72228e-09 1.00103 0.249486
1005.78 6.73419e-09 1.00104 0.251773
1005.78 6.73343e-09 1.00104 0.251472
1005.81 6.75001e-09 1.00104 0.251023
1005.77 6.7241e-09 1.00103 0.249384
1005.74 6.6424e-09 1.00103 0.248616
1005.8 6.7419e-09 1.00104 0.250412
1005.79 6.76821e-09 1.00104 0.249385
1005.78 6.72702e-09 1.00104 0.24909
1005.81 6.86072e-09 1.00104 0.251869
1005.78 6.73276e-09 1.00104 0.252001
1005.8 6.74582e-09 1.00104 0.250877
1005.81 6.74799e-09 1.00104 0.251204
1005.8 6.75795e-09 1.00104 0.250658
1005.71 6.41297e-09 1.00103 0.248982
1005.76 6.68984e-09 1.00103 0.248426
1005.74 6.71251e-09 1.00103 0.247527
1005.8 6.78784e-09 1.00104 0.249523
1005.77 6.64268e-09 1.00104 0.248472