# vtk DataFile Version 2.0
Wound Healing Simulation
ASCII
DATASET UNSTRUCTURED_GRID
POINTS 3012 float
69.9759 18.75 4
67.2507 60.3285 4
69.976 18.75 2
73.0099 25.446 4
71.1327 20.9142 4
68.6801 16.6661 4
67.8246 19.9262 3.98046
67.2507 60.3286 2
71.1327 54.0858 4
68.6801 58.3339 4
65.6939 62.2254 4
65.3112 59.0006 3.97949
74.6784 42.3946 4
73.7221 47.2057 4
69.9759 18.75 0
73.0099 25.446 2
68.6801 16.6661 2
71.1327 20.9142 2
67.8252 19.9296 2
74.6792 32.6053 4
73.7222 27.7943 4
72.1454 23.1494 4
70.6134 26.2209 3.98001
68.8848 21.958 3.98088
67.2507 14.6715 4
66.636 17.9725 3.97947
65.794 21.027 3.96979
67.2507 60.3285 0
71.1327 54.0858 2
68.6801 58.3339 2
65.694 62.2255 2
65.3124 58.9967 2
72.1454 51.8506 4
69.9759 56.25 4
68.8355 53.113 3.98007
64.0165 64.0165 4
66.6098 57.1334 3.98005
63.8842 60.7649 3.97966
63.4973 57.7681 3.97096
60.3285 67.2507 4
74.6792 42.3947 2
73.7222 47.2057 2
74.9194 39.9526 4
74.2788 44.8158 4
72.1677 42.0855 3.97973
73.0099 49.554 4
71.2486 46.5979 3.97931
73.0099 25.446 0
71.1327 20.9142 0
68.6801 16.6661 0
67.8246 19.9262 0.0195363
74.6792 32.6053 2
73.7222 27.7943 2
67.2508 14.6715 2
72.1455 23.1494 2
70.6133 26.2215 2
66.637 17.9767 2
68.8851 21.9602 2
65.7934 21.028 2
74.9197 35.0474 4
74.2794 30.1841 4
72.1843 32.9434 3.97999
71.2775 28.4314 3.9796
69.8147 24.0595 3.98063
68.3442 26.9523 3.96901
66.7596 22.9345 3.9694
65.694 12.7746 4
65.3223 16.1045 3.97904
64.7101 19.1979 3.97007
63.8774 22.0408 3.9663
71.1327 54.0858 0
65.6939 62.2254 0
68.6801 58.3339 0
65.3112 59.0006 0.0205064
72.1455 51.8506 2
69.9759 56.25 2
68.8357 53.111 2
64.0165 64.0165 2
66.6107 57.1296 2
63.8859 60.7614 2
63.4967 57.7678 2
62.2254 65.694 4
58.8938 65.4138 3.98927
69.7681 50.9888 3.97978
67.7828 55.1671 3.97993
66.6466 52.2079 3.96865
62.3349 62.4268 3.98362
64.6577 56.0292 3.97002
62.1988 59.3976 3.96933
61.8163 56.6735 3.96612
58.3339 68.6801 4
60.3285 67.2508 2
73.7221 47.2057 0
74.6784 42.3946 0
74.9197 39.9526 2
74.2794 44.8159 2
72.1672 42.0854 2
73.0099 49.554 2
71.2484 46.5977 2
75 37.5 4
72.405 39.8022 3.98037
71.7819 44.3528 3.97971
69.8019 41.7894 3.96922
70.5743 48.8134 3.97941
68.9097 46.0141 3.96878
74.6792 32.6053 0
73.7222 27.7943 0
67.2507 14.6715 0
72.1454 23.1494 0
70.6134 26.2209 0.0199853
68.8848 21.958 0.0191236
66.636 17.9725 0.0205319
65.794 21.027 0.0302125
74.9197 35.0474 2
74.2794 30.1841 2
72.1838 32.9438 2
71.2774 28.4319 2
65.694 12.7745 2
65.3238 16.109 2
69.8148 24.0607 2
68.344 26.9529 2
64.7095 19.1988 2
66.7592 22.9354 2
63.8769 22.0413 2
72.4128 35.2242 3.98042
71.8033 30.6763 3.98001
69.8379 33.2688 3.96937
68.9636 29.0388 3.96904
67.6085 24.913 3.96912
66.1765 27.6392 3.96699
64.0165 10.9835 4
64.7432 23.8351 3.96659
63.8886 14.3287 3.98048
63.5093 17.4523 3.97082
62.8989 20.3273 3.96591
62.048 22.9601 3.96686
60.6829 11.0989 3.98512
57.6111 11.4536 3.97681
72.1454 51.8506 0
69.9759 56.25 0
68.8355 53.113 0.0199306
64.0165 64.0165 0
63.8842 60.7649 0.0203402
66.6098 57.1334 0.0199459
63.4973 57.7681 0.0290439
62.2255 65.694 2
58.8953 65.4129 2
69.7681 50.9878 2
67.7833 55.164 2
66.6461 52.207 2
62.3369 62.4241 2
64.6571 56.0286 2
62.1982 59.3979 2
61.8157 56.6734 2
60.6676 63.9763 3.98624
57.025 66.7346 3.99071
57.5564 63.6878 3.97892
67.5046 50.1755 3.96838
65.6987 54.1716 3.96914
64.521 51.379 3.96582
60.7703 60.9318 3.97302
62.8133 55.0617 3.96614
60.649 58.1474 3.96401
60.3168 55.7719 3.96507
56.25 69.9759 4
58.3339 68.6801 2
60.3285 67.2507 0
58.9204 9.6569 3.98706
62.2254 9.30607 4
73.0099 49.554 0
74.2788 44.8158 0
71.2486 46.5979 0.0206889
72.1677 42.0855 0.0202667
74.9194 39.9526 0
75 37.5 2
72.4049 39.8023 2
71.7819 44.3524 2
69.8014 41.7891 2
70.5742 48.8131 2
68.9096 46.0135 2
72.4884 37.5121 3.97995
70.0393 39.6573 3.96933
69.428 43.907 3.96906
67.5796 41.4953 3.96836
68.2631 48.1061 3.96846
66.6854 45.4349 3.96755
74.9197 35.0474 0
74.2794 30.1841 0
72.1843 32.9434 0.0200148
71.2775 28.4314 0.0204047
65.694 12.7746 0
65.3223 16.1045 0.0209596
69.8147 24.0595 0.0193701
68.3442 26.9523 0.0309861
66.7596 22.9345 0.0305988
64.7101 19.1979 0.0299252
63.8774 22.0408 0.0336997
72.4128 35.2243 2
71.8033 30.6769 2
69.8373 33.2692 2
68.9636 29.0394 2
64.0165 10.9835 2
63.8907 14.3326 2
63.5088 17.4531 2
67.6082 24.9138 2
66.1767 27.6396 2
62.8983 20.3278 2
64.7428 23.8356 2
62.0474 22.9607 2
60.6854 11.1016 2
57.6121 11.4519 2
70.056 35.3922 3.96947
69.4648 31.15 3.96914
67.6411 33.593 3.96807
66.7536 29.6268 3.96733
65.5071 25.7041 3.96671
64.0731 28.2705 3.9701
62.3405 12.6561 3.98347
62.802 24.6539 3.96811
62.1951 15.7931 3.971
61.8048 18.6949 3.9661
61.18 21.3596 3.96525
60.3352 23.7571 3.96922
59.2441 12.7864 3.97385
55.8735 10.2389 3.97904
56.4027 13.1314 3.97335
69.7681 50.9888 0.0202166
62.2254 65.694 0
58.8938 65.4138 0.0107338
67.7828 55.1671 0.0200683
66.6466 52.2079 0.0313463
62.3349 62.4268 0.0163753
62.1988 59.3976 0.0306685
64.6577 56.0292 0.0299848
61.8163 56.6735 0.033878
60.6695 63.9746 2
57.026 66.7342 2
57.5565 63.6896 2
67.5043 50.1747 2
65.6981 54.1708 2
64.5209 51.3787 2
60.77 60.9325 2
62.8126 55.0615 2
60.6487 58.1475 2
60.3164 55.7716 2
55.0709 67.9315 3.99167
59.2167 62.3601 3.97422
55.8039 64.9072 3.98319
56.3238 62.078 3.97493
65.3092 49.4018 3.96624
63.6965 53.2867 3.9656
62.3779 50.6331 3.96723
59.3268 59.5451 3.9679
61.0557 54.2948 3.96589
59.2709 56.9934 3.9637
59.2219 55.1645 3.96525
48.1016 68.5772 3.98709
50.9487 69.9312 3.99179
54.0858 71.1327 4
56.25 69.976 2
58.3339 68.6801 0
57.0579 8.33672 3.98829
60.3285 7.74928 4
58.9228 9.65852 2
62.2255 9.30602 2
70.5743 48.8134 0.0205904
71.7819 44.3528 0.020287
68.9097 46.0141 0.0312187
69.8019 41.7894 0.0307822
72.405 39.8022 0.0196347
75 37.5 0
72.4878 37.5122 2
70.0392 39.6572 2
69.4279 43.9066 2
67.5796 41.4951 2
68.263 48.1054 2
66.6849 45.4346 2
70.1273 37.5217 3.96934
67.8199 39.5113 3.96843
67.2015 43.4663 3.96794
65.4746 41.2022 3.97258
66.0432 47.412 3.96693
64.563 44.8337 3.97072
72.4128 35.2242 0.0195835
71.8033 30.6763 0.0199876
69.8379 33.2688 0.0306262
68.9636 29.0388 0.0309582
64.0165 10.9835 0
63.8886 14.3287 0.0195241
63.5093 17.4523 0.0291842
67.6085 24.913 0.0308798
66.1765 27.6392 0.0330111
64.7432 23.8351 0.0334096
62.8989 20.3273 0.0340948
62.048 22.9601 0.0331377
60.6829 11.0989 0.0148779
57.6111 11.4536 0.0231895
70.056 35.3924 2
69.4648 31.1505 2
67.6411 33.5932 2
66.7537 29.6272 2
62.3429 12.6598 2
62.1946 15.7932 2
61.8041 18.6953 2
65.5069 25.7046 2
64.0719 28.271 2
61.1789 21.3601 2
62.8013 24.6544 2
60.3349 23.7579 2
59.2452 12.7861 2
56.4033 13.1295 2
55.8742 10.2375 2
67.8585 35.5487 3.9684
67.2486 31.6255 3.96774
65.6279 33.9333 3.97256
64.5874 30.2048 3.97099
63.4749 26.4302 3.96919
62.1281 28.8024 3.97422
60.7728 14.2307 3.97321
60.9417 25.3665 3.97125
60.6026 17.1422 3.96579
60.1917 19.8362 3.96361
59.5761 22.29 3.96605
58.8511 24.3603 3.97178
54.0369 9.13985 3.98102
57.9063 14.3478 3.97366
54.7845 12.0228 3.97438
55.3067 14.6711 3.97167
67.5046 50.1755 0.0316174
57.025 66.7346 0.00928889
60.6676 63.9763 0.0137562
57.5564 63.6878 0.0210752
65.6987 54.1716 0.0308646
64.521 51.379 0.0341796
60.7703 60.9318 0.0269822
60.649 58.1474 0.0359876
62.8133 55.0617 0.0338566
60.3168 55.7719 0.0349258
55.0717 67.9314 2
59.217 62.3614 2
55.8037 64.9083 2
56.3232 62.0803 2
65.309 49.4014 2
63.6963 53.2864 2
62.3777 50.6327 2
59.326 59.5464 2
61.0562 54.2947 2
59.2713 56.9932 2
59.2226 55.1641 2
53.0429 68.9993 3.99169
53.9663 66.0113 3.9849
57.8761 60.8574 3.97373
54.6823 63.2017 3.97765
55.2058 60.597 3.97357
63.1175 48.6423 3.96845
61.6972 52.558 3.96646
60.1548 49.9874 3.96912
58.0038 58.2444 3.96514
59.2822 53.9241 3.96697
58.0834 55.7875 3.96116
50.1083 67.8556 3.98677
47.4624 66.5774 3.98346
46.0553 69.1562 3.9873
48.1015 68.5779 2
48.8027 70.7224 3.9919
50.9492 69.9311 2
51.8506 72.1454 4
54.0858 71.1327 2
56.25 69.9759 0
55.1028 7.14105 3.99007
58.3339 6.31992 4
57.0597 8.33756 2
60.3286 7.74926 2
58.9204 9.6569 0.0129399
62.2254 9.30607 0
68.2631 48.1061 0.0315435
69.428 43.907 0.0309356
66.6854 45.4349 0.0324487
67.5796 41.4953 0.0316363
70.0393 39.6573 0.0306728
72.4884 37.5121 0.0200461
70.1268 37.5217 2
67.8197 39.5112 2
67.2022 43.466 2
65.4734 41.2019 2
66.0434 47.4116 2
64.5616 44.8333 2
67.9188 37.5221 3.96844
65.7119 39.3662 3.97276
65.0933 43.0142 3.97206
63.6137 40.917 3.97713
63.8773 46.6992 3.96947
62.6571 44.1932 3.97482
70.056 35.3922 0.0305275
69.4648 31.15 0.030855
67.6411 33.593 0.0319263
66.7536 29.6268 0.0326676
62.3405 12.6561 0.0165338
62.1951 15.7931 0.0289977
61.8048 18.6949 0.0338965
65.5071 25.7041 0.0332857
64.0731 28.2705 0.0299042
62.802 24.6539 0.0318851
61.18 21.3596 0.0347508
60.3352 23.7571 0.0307786
59.2441 12.7864 0.0261489
56.4027 13.1314 0.0266488
55.8735 10.2389 0.0209563
67.8582 35.5488 2
67.249 31.6258 2
65.6268 33.9336 2
64.5863 30.2052 2
60.7729 14.2316 2
60.6022 17.1423 2
60.1928 19.8363 2
63.4741 26.4307 2
62.1259 28.8031 2
59.5775 22.2906 2
60.941 25.3673 2
58.8503 24.3615 2
57.9064 14.3468 2
55.3071 14.6704 2
54.0375 9.13832 2
54.7852 12.0205 2
65.8037 35.6697 3.97272
65.1075 32.1641 3.97152
64.1677 34.2584 3.97695
62.4444 30.6577 3.97526
61.5334 27.0995 3.97251
60.6809 29.1725 3.97729
59.3042 15.6832 3.96958
59.1781 25.8371 3.97462
59.104 18.377 3.96434
58.6742 20.886 3.96298
58.1602 23.1353 3.96672
57.8194 24.7124 3.97381
52.1118 8.15618 3.98375
53.0566 11.0264 3.97636
56.6682 15.7645 3.97212
53.8052 13.7021 3.97415
54.3651 16.0275 3.97326
55.0709 67.9315 0.00833367
65.3092 49.4018 0.033759
55.8039 64.9072 0.0168067
59.2167 62.3601 0.0257841
56.3238 62.078 0.0250684
63.6965 53.2867 0.0343968
62.3779 50.6331 0.0327679
59.3268 59.5451 0.0320957
59.2709 56.9934 0.0363033
61.0557 54.2948 0.0341117
59.2219 55.1645 0.0347489
53.0435 68.9993 2
53.9662 66.0122 2
57.8753 60.8589 2
54.6817 63.2024 2
55.2054 60.5989 2
63.1167 48.6418 2
61.6981 52.5578 2
60.1546 49.9867 2
58.0031 58.2457 2
59.2844 53.9238 2
58.0814 55.7863 2
52.0696 66.9984 3.98641
52.9526 64.2141 3.98147
56.6392 59.4725 3.97265
[...]
POINT_DATA 3012
SCALARS Jp_lamdaP float 4
LOOKUP_TABLE default
0.99985 1 1 0.99985
1 1 1 1
0.999854 1 1 0.999854
0.999806 1 1 0.999806
0.999849 1 1 0.999849
0.999844 1 1 0.999844
0.999308 1 1 0.999308
1 1 1 1
1 1 1 1
1 1 1 1
0.999922 1 1 0.999922
0.999465 1 1 0.999465
0.99977 1 1 0.99977
0.999798 1 1 0.999798
0.999854 1 1 0.999854
0.999822 1 1 0.999822
0.999848 1 1 0.999848
0.999858 1 1 0.999858
0.99931 1 1 0.99931
1 1 1 1
0.999786 1 1 0.999786
0.999831 1 1 0.999831
0.999178 1 1 0.999178
0.999277 1 1 0.999277
0.999863 1 1 0.999863
0.99934 1 1 0.99934
0.998966 1.00052 1 0.998452
1 1 1 1
0.999913 1 1 0.999913
0.999927 1 1 0.999927
1 1 1 1
0.999474 1 1 0.999474
0.999822 1 1 0.999822
0.999845 1 1 0.999845
0.999395 1 1 0.999395
1 1 1 1
0.999484 1 1 0.999484
0.999563 1 1 0.999563
0.998492 1 1 0.998492
1 1 1 1
1 1 1 1
0.999897 1 1 0.999897
1 1 1 1
0.99979 1 1 0.99979
0.999107 1 1 0.999107
1 1 1 1
0.999301 1 1 0.999301
0.999836 1 1 0.999836
0.999863 1 1 0.999863
0.99985 1 1 0.99985
0.999316 1 1 0.999316
0.999881 1 1 0.999881
0.999802 1 1 0.999802
0.999873 1 1 0.999873
0.999845 1 1 0.999845
0.999178 1 1 0.999178
0.999345 1 1 0.999345
0.99928 1 1 0.99928
0.999173 1.00074 1 0.998437
1 1 1 1
0.999775 1 1 0.999775
0.999277 1 1 0.999277
0.999142 1 1 0.999142
0.999229 1 1 0.999229
1.00093 1.00278 1 0.998154
0.999551 1.00127 1 0.998287
0.999919 1 1 0.999919
0.999455 1 1 0.999455
0.998646 1.00009 1 0.998556
1.00564 1.00796 1 0.997703
1 1 1 1
1 1 1 1
1 1 1 1
0.999482 1 1 0.999482
1 1 1 1
1 1 1 1
0.999311 1 1 0.999311
0.999981 1 1 0.999981
0.999419 1 1 0.999419
0.999619 1 1 0.999619
0.998489 1 1 0.998489
1 1 1 1
0.999945 1 1 0.999945
0.999251 1 1 0.999251
0.999348 1 1 0.999348
1.00067 1.0026 1 0.998071
0.999766 1 1 0.999766
0.998622 1.00023 1 0.998391
0.998628 1 1 0.998628
0.998453 1.00052 1 0.997932
1 1 1 1
1 1 1 1
1 1 1 1
1 1 1 1
1 1 1 1
0.999892 1 1 0.999892
0.999187 1 1 0.999187
0.999902 1 1 0.999902
0.999254 1 1 0.999254
1 1 1 1
0.999094 1 1 0.999094
0.999274 1 1 0.999274
1.00066 1.00289 1 0.99778
0.999336 1 1 0.999336
1.00203 1.00417 1 0.997865
0.999788 1 1 0.999788
0.999816 1 1 0.999816
0.999882 1 1 0.999882
0.999856 1 1 0.999856
0.99918 1 1 0.99918
0.999284 1 1 0.999284
0.99935 1 1 0.99935
0.999367 1.00095 1 0.998422
1 1 1 1
0.99979 1 1 0.99979
0.99912 1 1 0.99912
0.999141 1 1 0.999141
0.999959 1 1 0.999959
0.999509 1 1 0.999509
0.999231 1 1 0.999231
1.0009 1.0028 1 0.998114
0.998712 1.00017 1 0.998538
0.999743 1.00143 1 0.998316
1.00585 1.00816 1 0.997708
0.999117 1 1 0.999117
0.99912 1 1 0.99912
1.00029 1.00234 1 0.997948
1.00097 1.00294 1 0.998038
1.00059 1.00242 1 0.99817
1.01263 1.01517 1 0.997503
1 1 1 1
1.00775 1.01014 1 0.997634
0.99968 1 1 0.99968
0.99859 1 1 0.99859
1.00396 1.0062 1 0.997772
1.01615 1.01874 1 0.997464
0.999858 1 1 0.999858
0.999666 1 1.00052 0.999147
1 1 1 1
1 1 1 1
0.999318 1 1 0.999318
1 1 1 1
0.999617 1 1 0.999617
0.999424 1 1 0.999424
0.998486 1 1 0.998486
1 1 1 1
0.99996 1 1 0.99996
0.99931 1 1 0.99931
0.999404 1 1 0.999404
1.00025 1.00219 1 0.998073
0.999778 1 1 0.999778
0.998511 1.00012 1 0.998394
0.998627 1 1 0.998627
0.998431 1.00052 1 0.997916
0.999872 1 1 0.999872
0.999987 1 1 0.999987
0.999489 1 1.00015 0.999339
1.00169 1.00374 1 0.997959
0.999403 1.00117 1 0.998233
1.00908 1.01161 1 0.997498
0.998849 1 1 0.998849
1.00165 1.00384 1 0.997825
0.998886 1.00029 1.00057 0.998024
1.00159 1.00385 1 0.997752
1 1 1 1
1 1 1 1
1 1 1 1
0.999914 1 1 0.999914
1 1 1 1
1 1 1 1
1 1 1 1
0.999204 1 1 0.999204
0.999133 1 1 0.999133
1 1 1 1
1 1 1 1
0.999096 1 1 0.999096
0.999226 1 1 0.999226
1.0009 1.00312 1 0.99778
0.999232 1 1 0.999232
1.00208 1.00422 1 0.997864
0.999087 1 1 0.999087
1.00003 1.00231 1 0.997731
1.00142 1.00359 1 0.997832
1.01577 1.01852 1 0.997306
1.00212 1.00423 1 0.997898
1.01624 1.01892 1 0.997374
1 1 1 1
0.999805 1 1 0.999805
0.998949 1 1 0.998949
0.99914 1 1 0.99914
1 1 1 1
0.999565 1 1 0.999565
0.999234 1 1 0.999234
1.00088 1.00281 1 0.998073
0.99994 1.0016 1 0.998345
0.998784 1.00026 1 0.99852
1.00605 1.00836 1 0.997712
0.999114 1 1 0.999114
0.999118 1 1 0.999118
1.00015 1.0023 1 0.997854
1.001 1.00294 1 0.998067
1 1 1 1
0.999678 1 1 0.999678
0.998642 1 1 0.998642
1.00055 1.00239 1 0.998169
1.01253 1.0151 1 0.997466
1.00391 1.00617 1 0.99776
1.00802 1.01038 1 0.997665
1.01569 1.01826 1 0.99747
0.999848 1 1 0.999848
0.999679 1 1.00053 0.999148
0.999727 1.00198 1 0.997752
1.00073 1.00273 1 0.997998
1.01371 1.01635 1 0.997403
1.01307 1.01572 1 0.99739
1.00998 1.01241 1 0.997596
1.02397 1.02665 1 0.997389
0.999781 1 1 0.999781
1.01803 1.02063 1 0.997455
0.998843 1 1.00009 0.998755
1.00018 1.00229 1 0.997898
1.01386 1.0164 1 0.997503
1.01924 1.02181 1 0.997483
0.999331 1 1.00033 0.998998
0.999396 1 1.00006 0.999338
1.00035 1 1.00176 0.998596
0.999271 1 1 0.999271
1 1 1 1
0.999974 1 1 0.999974
0.999376 1 1 0.999376
0.999832 1.00176 1 0.998075
0.999787 1 1 0.999787
0.998667 1 1.00004 0.998626
0.998419 1.00002 1 0.998397
0.998453 1.00055 1 0.9979
0.999891 1 1 0.999891
0.999992 1 1 0.999992
0.999606 1 1.00026 0.999341
1.00141 1.00346 1 0.997959
0.999078 1.00084 1 0.998238
1.00891 1.01144 1 0.997496
0.998873 1 1.00002 0.998853
1.00116 1.00333 1 0.997836
0.998907 1.00042 1.00047 0.99802
1.00175 1.00402 1 0.997738
0.999999 1 1 0.999999
0.999226 1 1.00014 0.999084
0.999747 1 1.00016 0.999585
0.99967 1 1.00089 0.998784
1.01237 1.015 1 0.997414
1.0057 1.00805 1 0.997666
1.01852 1.02126 1 0.997311
0.998735 1.00002 1.00044 0.998281
1.00677 1.00914 1 0.997646
1.00334 1.00406 1.00158 0.997708
1.00943 1.01185 1 0.997606
0.999854 1 1 0.999854
1 1 1 1
1 1 1 1
1 1 1 1
1 1 1 1
0.999956 1 1 0.999956
1 1 1 1
0.999903 1 1 0.999903
1 1 1 1
0.999233 1 1 0.999233
0.999172 1 1 0.999172
1.00219 1.00434 1 0.997864
1.00112 1.00335 1 0.99778
0.999098 1 1 0.999098
1 1 1 1
0.999086 1 1 0.999086
1.00019 1.00246 1 0.997731
1.00163 1.00381 1 0.997832
1.01555 1.01829 1 0.997305
1.00206 1.00417 1 0.997897
1.01621 1.01889 1 0.997372
0.999658 1.00194 1 0.997724
1.01484 1.01762 1 0.997261
1.01636 1.01907 1 0.997348
1.02945 1.03219 1 0.997342
1.01525 1.01791 1 0.997387
1.02826 1.03099 1 0.997354
0.999111 1 1 0.999111
0.999116 1 1 0.999116
1.00002 1.00226 1 0.997761
1.00103 1.00294 1 0.998095
1 1 1 1
0.999676 1 1 0.999676
0.998696 1 1 0.998694
1.00052 1.00236 1 0.998168
1.01243 1.01504 1 0.997428
1.00828 1.01061 1 0.997696
1.00384 1.0061 1 0.997749
1.01533 1.01789 1 0.997476
0.999838 1 1 0.999838
0.999722 1 1.00057 0.999149
0.99968 1.00196 1 0.997727
1.00069 1.0027 1 0.997995
1.01393 1.01657 1 0.997401
1.01322 1.01584 1 0.997426
0.999771 1 1 0.999771
0.998765 1 1.00001 0.998752
1.00074 1.00281 1 0.997933
1.01021 1.01265 1 0.997593
1.02428 1.02695 1 0.997401
1.01319 1.01576 1 0.997469
1.0179 1.02049 1 0.997458
1.0196 1.02217 1 0.997483
0.99926 1 1.00026 0.999
1.00032 1 1.00173 0.998598
0.999622 1 1.00029 0.999335
1.01388 1.01658 1 0.997349
1.01413 1.01674 1 0.997429
1.02775 1.03051 1 0.997329
1.02605 1.02878 1 0.997348
1.02003 1.02265 1 0.997443
1.02563 1.02815 1 0.997553
0.998897 1 1 0.998897
1.02125 1.02379 1 0.997524
0.998635 1.00042 1 0.998212
1.00557 1.00809 1 0.997499
1.01684 1.01955 1 0.997345
1.01824 1.02065 1 0.997638
0.999504 1 1 0.999504
0.998695 1 1.00013 0.998564
1.00086 1 1.00217 0.998688
0.999561 1 1.00114 0.998422
1.00114 1.00319 1 0.997959
0.999996 1 1 0.999996
0.99991 1 1 0.99991
0.999607 1 1.00026 0.999344
0.998729 1.00049 1 0.998243
1.00873 1.01126 1 0.997493
0.998856 1 1 0.998856
0.998845 1.0005 1.00033 0.998015
1.00064 1.0028 1 0.997847
1.00172 1.00401 1 0.997723
1 1 1 1
0.999229 1 1.00014 0.999085
0.999655 1 1.00006 0.999592
0.999887 1 1.00111 0.998779
1.01222 1.01484 1 0.99741
1.00489 1.00723 1 0.997667
1.0185 1.02125 1 0.997309
0.998735 1 1.00045 0.998286
1.00683 1.00919 1 0.997659
1.00321 1.0038 1.00173 0.997697
1.00949 1.01185 1 0.997672
1 1 1 1
0.999735 1 1 0.999735
0.998904 1 1.00034 0.99856
0.999655 1 1.00063 0.999024
0.999762 1 1.00126 0.998503
1.02184 1.02461 1 0.997289
1.01285 1.01543 1 0.997459
1.01801 1.02073 1 0.997332
1.00119 1.00129 1.00199 0.997917
1.00983 1.01228 1 0.997578
1.00675 1.00848 1.00086 0.997425
0.999836 1 1 0.999836
0.999457 1 1 0.999457
0.999866 1 1 0.999866
0.999856 1 1 0.999856
1 1 1 1
1 1 1 1
1 1 1 1
1 1 1 1
1 1 1 1
0.999985 1 1 0.999985
1 1 1 1
0.999945 1 1 0.999945
1 1 1 1
0.999891 1 1 0.999891
1 1 1 1
1.00197 1.00408 1 0.997896
1.00179 1.00397 1 0.997831
1.01604 1.01871 1 0.997371
1.0153 1.01805 1 0.997303
1.00039 1.00266 1 0.997731
0.999085 1 1 0.999085
0.999765 1.00205 1 0.997723
1.01478 1.01757 1 0.997261
1.01603 1.01873 1 0.997347
1.02971 1.03244 1 0.997355
1.01485 1.01751 1 0.997385
1.02775 1.03048 1 0.997353
1.01433 1.01713 1 0.997251
1.02864 1.03138 1 0.997337
1.02971 1.03245 1 0.997354
1.03323 1.036 0.999821 0.99751
1.0244 1.02714 1 0.997328
1.02881 1.0313 1 0.997587
0.99966 1.00196 1 0.997702
1.00066 1.00267 1 0.997992
1.01414 1.01678 1 0.997399
1.01336 1.01594 1 0.997462
0.99976 1 1 0.99976
0.998749 1 1 0.998749
1.00128 1.00332 1 0.997967
1.01046 1.01291 1 0.99759
1.0246 1.02726 1 0.997413
1.01776 1.02035 1 0.997462
1.01241 1.01501 1 0.997436
1.01993 1.0225 1 0.997483
0.999193 1 1.00019 0.999003
1.00028 1 1.00168 0.998599
0.999814 1 1.00048 0.999333
1.01402 1.01675 1 0.997314
1.01423 1.01685 1 0.997427
1.02736 1.03009 1 0.997345
1.02631 1.02904 1 0.997349
0.99894 1 1.00004 0.998896
0.999099 1.00089 1 0.998206
1.00503 1.00747 1.00003 0.997549
1.0202 1.02281 1 0.99744
1.02515 1.02763 1 0.997589
1.01688 1.01962 1 0.997312
1.02128 1.02381 1 0.997527
1.01786 1.02024 1 0.997663
0.998799 1 1.00023 0.998567
0.999546 1 1.00114 0.998403
0.999499 1 1 0.999499
1.00082 1 1.00211 0.998714
1.02765 1.03043 1 0.9973
1.02821 1.03093 1 0.99736
1.02997 1.03265 0.999977 0.997433
1.02761 1.03032 0.999793 0.997578
1.02295 1.02543 1 0.997579
1.02414 1.02646 1 0.997742
0.998454 1 1 0.998454
1.01842 1.02069 1 0.997781
0.999049 1.00121 1 0.997838
1.00938 1.01198 1.00018 0.997262
1.0183 1.02108 1 0.997281
1.01705 1.01939 1 0.9977
0.999617 1 1 0.999617
0.999348 1 1.00047 0.998876
0.998382 1 1 0.998382
1.00106 1 1.00259 0.998466
0.999011 1 1.00064 0.998377
1 1 1 1
1.01199 1.01462 1 0.997407
0.999599 1 1 0.999599
0.999311 1 1.00023 0.999085
1.00019 1 1.00142 0.998775
1.00414 1.00648 1 0.997668
1.01855 1.0213 1 0.997307
0.998796 1 1.00051 0.998291
1.00341 1.00379 1.00193 0.997685
1.007 1.00935 1 0.997673
1.00976 1.01205 1 0.997739
1 1 1 1
0.999742 1 1 0.999742
0.998918 1 1.00036 0.998562
0.999819 1 1.0008 0.999024
1.00014 1 1.00166 0.998481
1.02209 1.02487 1 0.997284
1.01316 1.01574 1 0.997458
1.01794 1.02067 1 0.997322
1.0009 1.00086 1.00213 0.997921
1.01226 1.01471 1 0.997588
1.00599 1.0076 1.00096 0.997444
0.999803 1 1 0.999803
0.999239 1 1 0.999239
0.998725 1 1.00048 0.998249
1.00086 1 1.00217 0.998688
0.999734 1 1.00137 0.998368
1.02186 1.02455 1 0.997375
1.01365 1.01626 1 0.99743
1.01597 1.01851 1 0.997501
1.00157 1.00009 1.00379 0.997689
1.00638 1.0091 1 0.997308
0.999839 1 1 0.999839
0.999391 1 1 0.999391
0.999436 1 1 0.999436
0.999224 1 1 0.999224
0.999466 1 1 0.999466
0.99987 1 1 0.99987
0.999867 1 1 0.999867
1 1 1 1
0.999858 1 1 0.999858
1 1 1 1
1 1 1 1
1 1 1 1
1 1 1 1
1 1 1 1
0.999998 1 1 0.999998
0.999977 1 1 0.999977
1 1 1 1
1 1 1 1
0.999935 1 1 0.999935
1 1 1 1
1.01454 1.0172 1 0.997382
1.01585 1.01855 1 0.997346
1.02735 1.03007 1 0.997351
1.03005 1.03276 1 0.997367
1.01468 1.01747 1 0.997262
0.99982 1.0021 1 0.997723
1.01419 1.01698 1 0.997252
1.02861 1.03136 1 0.99733
1.0297 1.03243 1 0.997353
1.03239 1.03537 0.999581 0.997539
1.02492 1.02767 1 0.997322
1.02894 1.03149 0.999924 0.997606
1.02773 1.03051 1 0.997304
1.03122 1.03464 0.999225 0.997475
1.03151 1.03411 0.999887 0.9976
1.03119 1.03506 0.998595 0.997661
1.02589 1.02846 1 0.997502
1.02898 1.03162 0.999653 0.997786
1.0141 1.01687 1 0.997278
1.01432 1.01693 1 0.997425
1.02693 1.02965 1 0.99736
1.02655 1.02928 1 0.99735
0.998921 1 1.00003 0.998894
0.999612 1.00142 1 0.998199
1.00469 1.00692 1.00018 0.9976
1.02036 1.02298 1 0.997437
1.0246 1.02704 1 0.997626
1.02131 1.02384 1 0.99753
1.01696 1.01974 1 0.99728
1.01738 1.01974 1 0.997688
0.998921 1 1.00035 0.998569
0.999499 1 1.00112 0.998385
0.999494 1 1 0.999494
1.00056 1 1.00182 0.998741
1.0275 1.03028 1 0.9973
1.02772 1.03046 1 0.997344
1.02985 1.03253 0.999954 0.997456
1.02748 1.03008 0.999915 0.997561
0.998448 1 1 0.998448
0.999294 1.00138 1.00003 0.997883
1.00958 1.01196 1.00039 0.997254
1.02264 1.02515 1 0.997547
1.02397 1.02625 0.999981 0.997795
1.01751 1.0203 1 0.997268
1.01876 1.02102 1 0.997783
1.0183 1.0206 1 0.997744
0.99838 1 1 0.99838
0.998699 1 1.00032 0.998381
1.00167 1 1.00322 0.998459
0.999583 1 1 0.999583
0.999291 1 1.00039 0.998901
1.03017 1.03382 0.999003 0.997458
1.0308 1.03367 0.99972 0.997508
1.02512 1.02859 0.998852 0.997777
1.02129 1.0236 0.999927 0.997816
0.998222 1 1 0.998221
1.02173 1.02384 1 0.99794
0.999167 1.00128 1.00029 0.997604
1.00973 1.01222 1.00051 0.99703
1.0165 1.0193 1 0.997253
0.999657 1 1 0.999657
0.999129 1 1.00002 0.999113
0.999972 1 1.00132 0.998653
0.998338 1 1 0.998338
1.00197 1 1.00369 0.998283
0.998313 1 1 0.998313
1 1 1 1
0.999749 1 1 0.999749
1.02236 1.02515 1 0.997279
0.999971 1 1.00095 0.999025
0.998859 1 1.0003 0.998563
1.00067 1 1.00221 0.99846
1.01329 1.01587 1 0.997457
1.01771 1.02045 1 0.997313
1.00055 1.00034 1.00229 0.997926
1.00475 1.00653 1.00077 0.997463
1.01448 1.01692 1 0.997599
0.999808 1 1 0.999808
0.999242 1 1 0.999242
0.998667 1 1.00041 0.998254
1.0013 1 1.00262 0.998685
0.99984 1 1.00148 0.998362
1.02178 1.02448 1 0.997369
1.01413 1.01676 1 0.997421
1.01579 1.01831 1 0.997526
1.00125 1.00036 1.00324 0.997658
1.00532 1.008 1.00006 0.997279
0.999367 1 1 0.999367
1.00011 1 1.00126 0.998856
1.00016 1.00008 1.002 0.998092
1.0015 1 1.00308 0.998422
0.999249 1 1.001 0.998255
1.02242 1.02469 1 0.997777
1.01196 1.01466 1 0.997341
1.01272 1.01521 1 0.997551
1.00351 1.00169 1.00433 0.997491
1.00087 1.0038 1 0.997084
0.999842 1 1 0.999842
0.999408 1 1 0.999408
0.999136 1 1 0.999136
0.999415 1 1 0.999415
0.999466 1 1 0.999466
0.999194 1 1 0.999194
0.999049 1 1 0.999049
0.999165 1 1 0.999165
0.99947 1 1 0.99947
0.999867 1 1 0.999867
0.99987 1 1 0.99987
1 1 1 1
0.999869 1 1 0.999869
1 1 1 1
1 1 1 1
1 1 1 1
1 1 1 1
1 1 1 1
1 1 1 1
0.999995 1 1 0.999995
1 1 1 1
0.999969 1 1 0.999969
1 1 1 1
1 1 1 1
1.02539 1.02815 1 0.997317
1.02954 1.03227 1 0.997353
1.02906 1.03168 0.999833 0.997624
1.03148 1.03471 0.999314 0.997567
1.02859 1.03135 1 0.997324
1.01411 1.01691 1 0.997253
1.02801 1.0308 1 0.997288
1.03145 1.0347 0.999396 0.997467
1.03125 1.03382 0.999936 0.997579
1.03066 1.03481 0.99831 0.997675
1.02525 1.02781 1 0.997502
1.02818 1.03087 0.999563 0.997826
1.03077 1.03388 0.999548 0.997441
1.03118 1.03673 0.996986 0.997653
1.03006 1.03424 0.998172 0.997779
1.0262 1.02876 0.999625 0.997879
1.02737 1.03015 1 0.9973
1.02725 1.03 1 0.997328
1.02975 1.03241 0.999939 0.99748
1.02738 1.02991 1 0.997544
0.998442 1 1 0.998442
0.999271 1.00134 1 0.997929
1.00968 1.01188 1.00058 0.997245
1.02226 1.02481 1 0.997516
1.02385 1.02609 0.99997 0.997847
1.01918 1.02144 1 0.997785
1.01682 1.01962 1 0.997256
1.01951 1.02177 1 0.997788
0.998378 1 1 0.998378
0.998385 1 1 0.998385
1.00283 1 1.00438 0.998453
0.999549 1 1 0.999549
0.999347 1 1.00042 0.998926
1.03064 1.03393 0.999354 0.99746
1.03098 1.03383 0.999731 0.997509
1.02502 1.02823 0.999113 0.997766
0.998488 1.00027 1 0.998214
1.00035 1.00245 1.00026 0.997648
1.00943 1.01167 1.00076 0.99702
1.02195 1.02426 0.999932 0.997806
1.01629 1.01901 1 0.997327
1.02016 1.02237 0.999925 0.997918
0.99967 1 1 0.99967
0.998395 1.00006 1 0.99833
0.998387 1 1 0.998387
1.00184 1 1.00358 0.998268
0.99995 1 1.00129 0.998664
0.999104 1 1.00002 0.999086
1.03082 1.03584 0.997607 0.997542
1.02868 1.03497 0.996218 0.997689
1.0218 1.02693 0.997134 0.997864
1.02612 1.02921 0.998988 0.998007
0.998726 1.00066 1 0.998067
1.01722 1.01965 1 0.997615
1.00218 1.00336 1.00165 0.997184
1.00605 1.00814 1.00104 0.996883
0.999773 1 1 0.999773
0.999265 1 1 0.999265
0.998859 1 1.00003 0.998824
1.00215 1 1.00379 0.998364
0.998237 1 1 0.998237
1.00039 1 1.00223 0.998161
0.999812 1 1 0.999812
0.999246 1 1 0.999246
1.02186 1.02457 1 0.997363
1.00136 1 1.00268 0.998681
0.998529 1 1.00027 0.998259
0.999834 1 1.00148 0.998356
1.01489 1.01753 1 0.997411
1.01583 1.01832 1 0.997551
1.00108 1.00073 1.00273 0.997626
1.00433 1.00683 1.00027 0.99725
0.999369 1 1 0.999369
0.999755 1 1.00089 0.998863
1.00013 1.00005 1.00198 0.998108
1.00172 1 1.0033 0.998427
0.998798 1 1.00048 0.998323
1.02279 1.02505 0.999984 0.997811
1.01134 1.01403 1 0.997347
1.01416 1.01657 1 0.997625
1.00298 1.00095 1.00458 0.997457
1.00156 1.00451 1.00003 0.997036
0.999064 1 1 0.999064
1.00076 1 1.00223 0.998531
1.002 1.00028 1.00378 0.997941
0.999688 1 1.00155 0.998137
1.02549 1.03334 0.994369 0.998023
1.01761 1.01989 0.999872 0.997887
1.0067 1.00959 1 0.997144
1.00335 1.00201 1.00426 0.997099
0.999425 1 1 0.999425
0.999149 1 1 0.999149
0.999008 1 1 0.999008
0.999466 1 1 0.999466
0.999163 1 1 0.999163
0.999469 1 1 0.999469
0.999033 1 1 0.999033
0.999178 1 1 0.999178
0.99894 1 1 0.99894
0.998997 1 1 0.998997
0.999149 1 1 0.999149
0.999457 1 1 0.999457
0.99986 1 1 0.99986
0.999866 1 1 0.999866
1 1 1 1
0.99987 1 1 0.99987
1 1 1 1
1 1 1 1
1 1 1 1
1 1 1 1
1 1 1 1
1 1 1 1
1 1 1 1
1 1 1 1
0.999992 1 1 0.999992
1 1 1 1
1 1 1 1
1.02452 1.02709 1 0.997502
1.03106 1.03358 1 0.997559
1.02741 1.03013 0.99949 0.997866
1.03015 1.03455 0.998056 0.99769
1.03169 1.03475 0.999589 0.997458
1.02828 1.03109 1 0.997271
1.03042 1.03384 0.999244 0.997445
1.03057 1.03593 0.997174 0.997644
1.02968 1.03396 0.998078 0.997778
1.02777 1.03027 0.999691 0.997883
1.03077 1.03636 0.997005 0.997594
1.03071 1.03874 0.994437 0.997821
1.0309 1.03621 0.996951 0.997917
1.0311 1.03404 0.999696 0.997463
1.03115 1.03396 0.999769 0.997511
1.02491 1.02781 0.999422 0.997755
0.998864 1.00066 1 0.998208
1.00156 1.0037 1.00018 0.997691
1.00884 1.01102 1.00085 0.997009
1.02255 1.02488 0.999931 0.997795
1.01869 1.02097 0.999873 0.997896
1.01635 1.01899 1 0.997402
0.998512 1.00019 1 0.998322
0.998461 1 1 0.998461
1.00158 1 1.00333 0.998254
0.999684 1 1 0.999684
0.999474 1 1.0008 0.998675
0.999059 1 1 0.999059
1.03159 1.03617 0.99803 0.997549
1.02905 1.03518 0.996375 0.997697
1.02207 1.0267 0.997633 0.997856
0.999127 1.00107 1 0.998056
1.00177 1.00311 1.0014 0.99727
1.0054 1.00759 1.0009 0.996925
1.02603 1.02886 0.99923 0.998016
1.01775 1.02027 0.999937 0.997602
0.999812 1 1 0.999812
0.999265 1 1 0.999265
0.998266 1 1 0.998266
1.00131 1 1.00308 0.998239
1.00206 1 1.00369 0.998384
0.998809 1 1.00001 0.998801
1.03016 1.03773 0.994953 0.997739
1.02144 1.03202 0.991898 0.997828
1.02239 1.02836 0.996133 0.998052
1.02002 1.02368 0.99838 0.998042
0.999719 1.00102 1.00088 0.997815
1.00522 1.00681 1.0014 0.997028
1.00314 1.00352 1.00264 0.996988
0.999904 1 1 0.999904
0.99954 1 1 0.99954
0.999345 1 1 0.999345
0.99892 1 1 0.99892
0.999648 1 1.0011 0.998551
1.00193 1 1.00368 0.998257
0.998297 1 1 0.998297
1.01401 1 1.01564 0.998389
0.999372 1 1 0.999372
0.999623 1 1.00075 0.998871
1.02306 1.0253 0.99997 0.997844
1.00226 1 1.00383 0.998431
1.00027 1 1.00215 0.998124
0.998427 1 1.00004 0.998391
1.01045 1.01314 1 0.997352
1.0154 1.01774 1 0.997699
1.00265 1.00042 1.00482 0.997424
1.0024 1.00543 1 0.996988
0.999045 1 1 0.999045
1.001 1 1.00246 0.998544
1.00229 1.00018 1.00415 0.997967
0.999521 1 1.00136 0.998167
1.0269 1.03429 0.994807 0.998037
1.01741 1.01965 0.999949 0.99785
1.00773 1.01058 1 0.997183
1.00341 1.00259 1.00377 0.997057
0.999125 1 1.00027 0.998858
1.0241 1.0358 0.99065 0.998035
1.00104 1 1.00276 0.998286
1.0011 1.00073 1.00268 0.9977
1.02434 1.02797 0.998335 0.998125
1.00793 1.01069 1 0.997273
1.00472 1.00458 1.00323 0.996916
0.999162 1 1 0.999162
0.999004 1 1 0.999004
0.998907 1 1 0.998907
0.999469 1 1 0.999469
0.999191 1 1 0.999191
0.999016 1 1 0.999016
0.999455 1 1 0.999455
0.999152 1 1 0.999152
0.998926 1 1 0.998926
0.999019 1 1 0.999019
0.998865 1 1 0.998865
0.998894 1 1 0.998894
0.998983 1 1 0.998983