# vtk DataFile Version 2.0
Wound Healing Simulation
ASCII
DATASET UNSTRUCTURED_GRID
POINTS 3012 float
69.9759 18.75 4
67.2507 60.3285 4
69.976 18.75 2
73.0099 25.446 4
71.1327 20.9142 4
68.6801 16.6661 4
67.8267 19.916 3.99215
67.2507 60.3286 2
71.1327 54.0858 4
68.6801 58.3339 4
65.6939 62.2254 4
65.3132 59.0096 3.99307
74.6784 42.3946 4
73.7221 47.2057 4
69.9759 18.75 0
73.0099 25.446 2
68.6801 16.6661 2
71.1327 20.9142 2
67.8266 19.9156 2
74.6792 32.6053 4
73.7222 27.7943 4
72.1454 23.1494 4
70.6164 26.2136 3.9903
68.8872 21.9484 3.99157
67.2507 14.6715 4
66.638 17.9621 3.99271
65.8044 21.0091 3.98753
67.2507 60.3285 0
71.1327 54.0858 2
68.6801 58.3339 2
65.694 62.2255 2
65.3131 59.01 2
72.1454 51.8506 4
69.9759 56.25 4
68.8381 53.1227 3.99152
64.0165 64.0165 4
66.6116 57.1432 3.99275
63.8866 60.773 3.99345
63.5048 57.7902 3.98852
60.3285 67.2507 4
74.6792 42.3947 2
73.7222 47.2057 2
74.9194 39.9526 4
74.2788 44.8158 4
72.1713 42.089 3.98962
73.0099 49.554 4
71.2521 46.6044 3.99025
73.0099 25.446 0
71.1327 20.9142 0
68.6801 16.6661 0
67.8267 19.916 0.00784696
74.6792 32.6053 2
73.7222 27.7943 2
67.2508 14.6715 2
72.1455 23.1494 2
70.6164 26.2133 2
66.638 17.9618 2
68.8872 21.9481 2
65.8044 21.0088 2
74.9197 35.0474 4
74.2794 30.1841 4
72.1877 32.9392 3.9898
71.2806 28.4251 3.98982
69.8175 24.0511 3.99095
68.3561 26.9415 3.98634
66.7709 22.9193 3.98722
65.694 12.7746 4
65.3245 16.0948 3.99312
64.7197 19.1766 3.98806
63.9008 22.0127 3.98589
71.1327 54.0858 0
65.6939 62.2254 0
68.6801 58.3339 0
65.3132 59.0096 0.00693032
72.1455 51.8506 2
69.9759 56.25 2
68.8381 53.123 2
64.0165 64.0165 2
66.6116 57.1435 2
63.8866 60.7733 2
63.5048 57.7905 2
62.2254 65.694 4
58.8937 65.4184 3.99368
69.7711 50.9976 3.99092
67.785 55.1772 3.99226
66.6583 52.2234 3.98718
62.3367 62.4332 3.99366
64.6668 56.0493 3.98823
62.2055 59.4224 3.98908
61.8319 56.7061 3.98663
58.3339 68.6801 4
60.3285 67.2508 2
73.7221 47.2057 0
74.6784 42.3946 0
74.9197 39.9526 2
74.2794 44.8159 2
72.1713 42.0892 2
73.0099 49.554 2
71.2521 46.6047 2
75 37.5 4
72.4085 39.8037 3.98927
71.7855 44.3579 3.99001
69.8147 41.7939 3.98598
70.5777 48.8211 3.99053
68.9228 46.0232 3.98644
74.6792 32.6053 0
73.7222 27.7943 0
67.2507 14.6715 0
72.1454 23.1494 0
70.6164 26.2136 0.00970132
68.8872 21.9484 0.00842974
66.638 17.9621 0.00729211
65.8044 21.0091 0.0124676
74.9197 35.0474 2
74.2794 30.1841 2
72.1877 32.9391 2
71.2807 28.4249 2
65.694 12.7745 2
65.3245 16.0945 2
69.8175 24.0507 2
68.3562 26.9413 2
64.7197 19.1762 2
66.7709 22.9191 2
63.9008 22.0125 2
72.4162 35.2215 3.9895
71.8065 30.671 3.98976
69.85 33.2636 3.98577
68.9756 29.03 3.98586
67.6203 24.9001 3.98687
66.2113 27.6203 3.98462
64.0165 10.9835 4
64.7719 23.81 3.98568
63.8907 14.3201 3.99334
63.5173 17.4277 3.98868
62.9186 20.2956 3.98618
62.1129 22.915 3.9851
60.684 11.0926 3.99349
57.6123 11.4356 3.98933
72.1454 51.8506 0
69.9759 56.25 0
68.8381 53.1227 0.00848471
64.0165 64.0165 0
63.8866 60.773 0.00655331
66.6116 57.1432 0.00724836
63.5048 57.7902 0.0114815
62.2255 65.694 2
58.8937 65.4186 2
69.7711 50.9979 2
67.785 55.1776 2
66.6584 52.2236 2
62.3366 62.4335 2
64.6668 56.0496 2
62.2055 59.4227 2
61.832 56.7063 2
60.6687 63.982 3.99367
57.0242 66.7384 3.99372
57.5575 63.7016 3.98957
67.5172 50.1889 3.98685
65.7096 54.1895 3.98774
64.554 51.406 3.98541
60.7743 60.9536 3.98954
62.8316 55.0922 3.98666
60.6645 58.1833 3.98674
60.3404 55.8156 3.9858
56.25 69.9759 4
58.3339 68.6801 2
60.3285 67.2507 0
58.9209 9.6514 3.99353
62.2254 9.30607 4
73.0099 49.554 0
74.2788 44.8158 0
71.2521 46.6044 0.00974849
72.1713 42.089 0.0103807
74.9194 39.9526 0
75 37.5 2
72.4085 39.8037 2
71.7855 44.3581 2
69.8147 41.794 2
70.5777 48.8214 2
68.9228 46.0233 2
72.4918 37.5114 3.98923
70.0515 39.6592 3.98566
69.441 43.9139 3.98627
67.6164 41.5039 3.98441
68.2761 48.1175 3.98664
66.7287 45.4523 3.98485
74.9197 35.0474 0
74.2794 30.1841 0
72.1877 32.9392 0.0101993
71.2806 28.4251 0.0101784
65.694 12.7746 0
65.3245 16.0948 0.00688199
69.8175 24.0511 0.00904996
68.3561 26.9415 0.0136608
66.7709 22.9193 0.0127819
64.7197 19.1766 0.0119386
63.9008 22.0127 0.0141081
72.4163 35.2215 2
71.8066 30.6709 2
69.85 33.2635 2
68.9756 29.0298 2
64.0165 10.9835 2
63.8907 14.3198 2
63.5173 17.4273 2
67.6203 24.8999 2
66.2114 27.6201 2
62.9186 20.2954 2
64.7719 23.8098 2
62.1129 22.9149 2
60.684 11.0923 2
57.6123 11.4353 2
70.0681 35.3892 3.98579
69.4768 31.1429 3.98579
67.6734 33.5844 3.98401
66.7893 29.6111 3.98406
65.5404 25.682 3.98525
64.1707 28.2369 3.98395
62.342 12.6492 3.99344
62.8792 24.6117 3.98504
62.201 15.7666 3.98909
61.8222 18.6596 3.98669
61.2346 21.3116 3.98505
60.4518 23.6949 3.9849
59.2466 12.765 3.98933
55.8739 10.2238 3.9894
56.4062 13.0971 3.98665
69.7711 50.9976 0.00908005
62.2254 65.694 0
58.8937 65.4184 0.00631586
67.785 55.1772 0.00774449
66.6583 52.2234 0.0128241
62.3367 62.4332 0.00634299
62.2055 59.4224 0.0109225
64.6668 56.0493 0.0117681
61.8319 56.7061 0.0133711
60.6687 63.9822 2
57.0242 66.7387 2
57.5575 63.702 2
67.5172 50.1891 2
65.7097 54.1898 2
64.554 51.4062 2
60.7743 60.954 2
62.8317 55.0924 2
60.6645 58.1836 2
60.3405 55.8157 2
55.0697 67.9348 3.99376
59.2196 62.3791 3.98959
55.8035 64.9173 3.9896
56.3278 62.1035 3.98693
65.3495 49.4265 3.98514
63.7203 53.3153 3.98609
62.4656 50.6783 3.9845
59.3368 59.5777 3.98706
61.093 54.3386 3.98588
59.2981 57.0412 3.98542
59.257 55.2157 3.98588
48.1021 68.5817 3.98989
50.9478 69.9335 3.99382
54.0858 71.1327 4
56.25 69.976 2
58.3339 68.6801 0
57.058 8.33184 3.99359
60.3285 7.74928 4
58.9209 9.65113 2
62.2255 9.30602 2
70.5777 48.8211 0.00946616
71.7855 44.3579 0.00999493
68.9228 46.0232 0.0135563
69.8147 41.7939 0.0140222
72.4085 39.8037 0.0107347
75 37.5 0
72.4918 37.5114 2
70.0515 39.6592 2
69.441 43.914 2
67.6164 41.504 2
68.2762 48.1176 2
66.7286 45.4524 2
70.1395 37.521 3.98563
67.8532 39.5153 3.98433
67.2427 43.4794 3.98458
65.5836 41.2182 3.98387
66.0872 47.4333 3.98506
64.6796 44.8645 3.98435
72.4162 35.2215 0.0105023
71.8065 30.671 0.0102374
69.85 33.2636 0.0142348
68.9756 29.03 0.0141435
64.0165 10.9835 0
63.8907 14.3201 0.00666234
63.5173 17.4277 0.0113197
67.6203 24.9001 0.0131314
66.2113 27.6203 0.0153754
64.7719 23.81 0.0143214
62.9186 20.2956 0.0138157
62.1129 22.915 0.0149015
60.684 11.0926 0.00650866
57.6123 11.4356 0.0106669
70.0681 35.3892 2
69.4768 31.1428 2
67.6735 33.5844 2
66.7893 29.611 2
62.342 12.6489 2
62.201 15.7662 2
61.8222 18.6593 2
65.5404 25.6818 2
64.1707 28.2368 2
61.2346 21.3115 2
62.8792 24.6115 2
60.4517 23.6949 2
59.2466 12.7646 2
56.4063 13.0968 2
55.8739 10.2234 2
67.889 35.5439 3.98432
67.2829 31.6132 3.98402
65.7236 33.9196 3.98342
64.6878 30.1772 3.98312
63.5618 26.3919 3.98462
62.289 28.7556 3.98418
60.7761 14.2075 3.98928
61.0741 25.3079 3.98489
60.6176 17.1045 3.98699
60.2349 19.7866 3.98557
59.6832 22.2244 3.98431
59.0093 24.2846 3.98526
54.0369 9.1282 3.98954
57.9119 14.3134 3.98684
54.7871 11.9987 3.98656
55.3143 14.6272 3.98549
67.5172 50.1889 0.013149
57.0242 66.7384 0.00628025
60.6687 63.982 0.00633174
57.5575 63.7016 0.0104274
65.7096 54.1895 0.0122581
64.554 51.406 0.0145895
60.7743 60.9536 0.010464
60.6645 58.1833 0.0132634
62.8316 55.0922 0.0133363
60.3404 55.8156 0.0142009
55.0697 67.935 2
59.2196 62.3795 2
55.8035 64.9177 2
56.3278 62.1038 2
65.3495 49.4266 2
63.7204 53.3155 2
62.4656 50.6784 2
59.3369 59.578 2
61.0931 54.3387 2
59.2982 57.0413 2
59.2571 55.2158 2
53.0417 69.0021 3.99379
53.9656 66.0183 3.98965
57.8827 60.8872 3.98705
54.6836 63.217 3.98693
55.2133 60.6319 3.98557
63.2203 48.6845 3.98451
61.762 52.6036 3.98513
60.3051 50.0502 3.98395
58.0235 58.2855 3.98575
59.346 53.9805 3.9853
58.1387 55.8454 3.9843
50.1084 67.8601 3.9898
47.4624 66.5853 3.98718
46.0561 69.1608 3.98995
48.1021 68.5821 2
48.8022 70.7245 3.99385
50.9478 69.9338 2
51.8506 72.1454 4
54.0858 71.1327 2
56.25 69.9759 0
55.1023 7.13687 3.99364
58.3339 6.31992 4
57.058 8.33157 2
60.3286 7.74926 2
58.9209 9.6514 0.00646676
62.2254 9.30607 0
68.2761 48.1175 0.0133595
69.441 43.9139 0.0137268
66.7287 45.4523 0.0151483
67.6164 41.5039 0.0155878
70.0515 39.6592 0.0143424
72.4918 37.5114 0.0107653
70.1395 37.521 2
67.8533 39.5154 2
67.2427 43.4795 2
65.5835 41.2183 2
66.0872 47.4335 2
64.6795 44.8647 2
67.9494 37.5216 3.98419
65.8152 39.3745 3.98408
65.2035 43.0377 3.98387
63.7914 40.9394 3.98386
63.9926 46.7366 3.98455
62.8428 44.2355 3.98447
70.0681 35.3892 0.0142069
69.4768 31.1429 0.0142095
67.6734 33.5844 0.015995
66.7893 29.6111 0.0159356
62.342 12.6492 0.00655699
62.201 15.7666 0.0109066
61.8222 18.6596 0.0133078
65.5404 25.682 0.014751
64.1707 28.2369 0.0160477
62.8792 24.6117 0.0149558
61.2346 21.3116 0.0149487
60.4518 23.6949 0.0150982
59.2466 12.765 0.0106724
56.4062 13.0971 0.0133485
55.8739 10.2238 0.0105962
67.889 35.5439 2
67.2829 31.6131 2
65.7236 33.9195 2
64.6878 30.1771 2
60.7761 14.2071 2
60.6177 17.1042 2
60.235 19.7864 2
63.5619 26.3917 2
62.289 28.7555 2
59.6831 22.2244 2
61.0741 25.3078 2
59.0092 24.2846 2
57.9119 14.3132 2
55.3143 14.627 2
54.0369 9.12783 2
54.7872 11.9984 2
65.9031 35.6627 3.98359
65.2118 32.1431 3.98305
64.3161 34.2417 3.98245
62.628 30.6177 3.98318
61.6824 27.0459 3.98452
60.8879 29.116 3.98503
59.3131 15.6482 3.98697
59.3662 25.7631 3.98567
59.1308 18.3283 3.98611
58.7564 20.8207 3.98459
58.3115 23.0555 3.9838
58.0022 24.6276 3.98621
52.1116 8.14749 3.98963
53.0579 11.0065 3.98668
56.6788 15.721 3.9859
53.8106 13.6651 3.98508
54.3784 15.9777 3.98508
55.0697 67.9348 0.00624498
65.3495 49.4265 0.0148568
55.8035 64.9173 0.0104034
59.2196 62.3791 0.0104111
56.3278 62.1035 0.0130697
63.7203 53.3153 0.0139143
62.4656 50.6783 0.015499
59.3368 59.5777 0.0129361
59.2981 57.0412 0.0145785
61.093 54.3386 0.0141181
59.257 55.2157 0.0141153
53.0417 69.0024 2
53.9656 66.0187 2
57.8827 60.8875 2
54.6836 63.2173 2
55.2133 60.6321 2
63.2202 48.6846 2
61.762 52.6037 2
60.305 50.0502 2
58.0236 58.2857 2
59.3461 53.9806 2
58.1388 55.8454 2
52.0692 67.0039 3.98971
52.9525 64.2256 3.98692
56.6515 59.5088 3.9859
[...]
POINT_DATA 3012
SCALARS rho_c_phif_kappa float 4
LOOKUP_TABLE default
1000 0 1.00011 0.233223
1000 0 1.00011 0.23334
1000 0 1.00011 0.233209
1000 0 1.00011 0.233203
1000 0 1.00011 0.233209
1000 0 1.00011 0.233241
1001.05 1.22852e-09 1.00011 0.233273
1000 0 1.00011 0.233341
1000 0 1.00011 0.233289
1000 0 1.00011 0.233324
1000 0 1.00011 0.233264
1001.05 1.22583e-09 1.00011 0.233246
1000 0 1.00011 0.233268
1000 0 1.00011 0.233155
1000 0 1.00011 0.233197
1000 0 1.00011 0.233178
1000 0 1.00011 0.233229
1000 0 1.00011 0.233192
1001.05 1.22853e-09 1.00011 0.233279
1000 0 1.00011 0.233334
1000 0 1.00011 0.233216
1000 0 1.00011 0.233202
1001.05 1.23094e-09 1.00011 0.233263
1001.05 1.22945e-09 1.00011 0.23327
1000 0 1.00011 0.233257
1001.05 1.22755e-09 1.00011 0.233274
1000.8 9.38207e-10 1.00011 0.233385
1000 0 1.00011 0.233342
1000 0 1.00011 0.233231
1000 0 1.00011 0.233273
1000 0 1.00011 0.233355
1001.05 1.22576e-09 1.00011 0.233241
1000 0 1.00011 0.233161
1000 0 1.00011 0.233202
1001.05 1.22766e-09 1.00011 0.233287
1000 0 1.00011 0.233366
1001.05 1.22689e-09 1.00011 0.233289
1001.05 1.22462e-09 1.00011 0.233252
1000.8 9.39648e-10 1.00011 0.233368
1000 0 1.00011 0.233388
1000 0 1.00011 0.233346
1000 0 1.00011 0.233226
1000 0 1.00011 0.233407
1000 0 1.00011 0.233183
1001.05 1.23493e-09 1.00011 0.23326
1000 0 1.00011 0.233271
1001.05 1.23243e-09 1.00011 0.233283
1000 0 1.00011 0.233153
1000 0 1.00011 0.233177
1000 0 1.00011 0.233219
1001.05 1.22852e-09 1.00011 0.233283
1000 0 1.00011 0.233306
1000 0 1.00011 0.23319
1000 0 1.00011 0.233247
1000 0 1.00011 0.23318
1001.05 1.23118e-09 1.00011 0.233273
1001.05 1.2275e-09 1.00011 0.233278
1001.05 1.22951e-09 1.00011 0.233277
1000.8 9.38187e-10 1.00011 0.233389
1000 0 1.00011 0.233356
1000 0 1.00011 0.233244
1001.05 1.23437e-09 1.00011 0.233289
1001.05 1.23166e-09 1.00011 0.233268
1001.05 1.23027e-09 1.00011 0.233265
1000.8 9.3706e-10 1.00011 0.23339
1000.8 9.37718e-10 1.00011 0.233392
1000 0 1.00011 0.233273
1001.05 1.22654e-09 1.00011 0.233272
1000.8 9.38811e-10 1.00011 0.233373
1000.85 1.00135e-09 1.00011 0.233422
1000 0 1.00011 0.233293
1000 0 1.00011 0.233356
1000 0 1.00011 0.233326
1001.05 1.22583e-09 1.00011 0.233236
1000 0 1.00011 0.233282
1000 0 1.00011 0.233309
1001.05 1.22775e-09 1.00011 0.233236
1000 0 1.00011 0.233322
1001.05 1.22685e-09 1.00011 0.233242
1001.05 1.22451e-09 1.00011 0.233265
1000.8 9.39606e-10 1.00011 0.233371
1000 0 1.00011 0.233379
1001.05 1.22257e-09 1.00011 0.233251
1001.05 1.22913e-09 1.00011 0.233247
1001.05 1.22708e-09 1.00011 0.233258
1000.8 9.38659e-10 1.00011 0.233404
1001.05 1.22334e-09 1.00011 0.233283
1000.8 9.38963e-10 1.00011 0.233382
1000.8 9.40205e-10 1.00011 0.233357
1000.85 1.00149e-09 1.00011 0.233413
1000 0 1.00011 0.233397
1000 0 1.00011 0.233389
1000 0 1.00011 0.233277
1000 0 1.00011 0.233322
1000 0 1.00011 0.233383
1000 0 1.00011 0.233252
1001.05 1.23534e-09 1.00011 0.233269
1000 0 1.00011 0.233213
1001.05 1.23272e-09 1.00011 0.233249
1000 0 1.00011 0.233394
1001.05 1.23544e-09 1.00011 0.233248
1001.05 1.2338e-09 1.00011 0.233287
1000.8 9.36616e-10 1.00011 0.233326
1001.05 1.23048e-09 1.00011 0.233263
1000.8 9.36519e-10 1.00011 0.23338
1000 0 1.00011 0.233265
1000 0 1.00011 0.23316
1000 0 1.00011 0.233239
1000 0 1.00011 0.23316
1001.05 1.23094e-09 1.00011 0.233281
1001.05 1.22945e-09 1.00011 0.233283
1001.05 1.22755e-09 1.00011 0.233281
1000.8 9.38207e-10 1.00011 0.233392
1000 0 1.00011 0.233376
1000 0 1.00011 0.233217
1001.05 1.23477e-09 1.00011 0.233275
1001.05 1.23198e-09 1.00011 0.233276
1000 0 1.00011 0.233304
1001.05 1.22645e-09 1.00011 0.233277
1001.05 1.23042e-09 1.00011 0.233274
1000.8 9.37064e-10 1.00011 0.233392
1000.8 9.38787e-10 1.00011 0.233377
1000.8 9.37706e-10 1.00011 0.233395
1000.85 1.00144e-09 1.00011 0.233422
1001.05 1.23553e-09 1.00011 0.233269
1001.05 1.23292e-09 1.00011 0.233274
1000.8 9.36298e-10 1.00011 0.233352
1000.8 9.36779e-10 1.00011 0.233387
1000.8 9.37449e-10 1.00011 0.233393
1000.85 1.00106e-09 1.00011 0.233415
1000 0 1.00011 0.233364
1000.85 1.00135e-09 1.00011 0.233425
1001.05 1.22557e-09 1.00011 0.233234
1000.8 9.3913e-10 1.00011 0.233364
1000.85 1.0016e-09 1.00011 0.233416
1000.84 9.87132e-10 1.00011 0.233399
1001.05 1.22472e-09 1.00011 0.233244
1000.79 9.39161e-10 1.00011 0.233354
1000 0 1.00011 0.233279
1000 0 1.00011 0.23331
1001.05 1.22766e-09 1.00011 0.233232
1000 0 1.00011 0.233368
1001.05 1.22462e-09 1.00011 0.233237
1001.05 1.22689e-09 1.00011 0.233234
1000.8 9.39648e-10 1.00011 0.233374
1000 0 1.00011 0.233379
1001.05 1.22241e-09 1.00011 0.233251
1001.05 1.22931e-09 1.00011 0.23326
1001.05 1.2271e-09 1.00011 0.233269
1000.8 9.38691e-10 1.00011 0.233406
1001.05 1.22321e-09 1.00011 0.233243
1000.8 9.38943e-10 1.00011 0.233385
1000.8 9.40161e-10 1.00011 0.233359
1000.85 1.0016e-09 1.00011 0.233414
1001.05 1.22274e-09 1.00011 0.233246
1001.06 1.22264e-09 1.00011 0.233256
1000.79 9.40444e-10 1.00011 0.233348
1000.8 9.37003e-10 1.00011 0.233409
1000.8 9.39812e-10 1.00011 0.233393
1000.85 9.99074e-10 1.00011 0.233416
1000.8 9.40561e-10 1.00011 0.233351
1000.85 1.0024e-09 1.00011 0.233412
1000.85 1.00277e-09 1.00011 0.233407
1000.84 9.89432e-10 1.00011 0.233369
1000 0 1.00011 0.233406
1000 0 1.00011 0.233398
1000 0 1.00011 0.233389
1001.06 1.22445e-09 1.00011 0.23325
1000 0 1.00011 0.233376
1000 0 1.00011 0.233272
1000 0 1.00011 0.233293
1001.05 1.23243e-09 1.00011 0.233227
1001.05 1.23493e-09 1.00011 0.23325
1000 0 1.00011 0.233363
1000 0 1.00011 0.233409
1001.05 1.23586e-09 1.00011 0.233254
1001.05 1.23416e-09 1.00011 0.233254
1000.8 9.36531e-10 1.00011 0.233327
1001.05 1.23071e-09 1.00011 0.233218
1000.8 9.36486e-10 1.00011 0.233381
1001.05 1.23584e-09 1.00011 0.233264
1000.8 9.38039e-10 1.00011 0.233306
1000.8 9.37016e-10 1.00011 0.233353
1000.85 1.00214e-09 1.00011 0.233364
1000.8 9.3742e-10 1.00011 0.233401
1000.85 1.0014e-09 1.00011 0.233421
1000 0 1.00011 0.233402
1000 0 1.00011 0.233186
1001.05 1.23437e-09 1.00011 0.233271
1001.05 1.23166e-09 1.00011 0.233286
1000 0 1.00011 0.23335
1001.05 1.22654e-09 1.00011 0.23328
1001.05 1.23027e-09 1.00011 0.233281
1000.8 9.3706e-10 1.00011 0.233393
1000.8 9.37718e-10 1.00011 0.233398
1000.8 9.38811e-10 1.00011 0.233381
1000.85 1.00135e-09 1.00011 0.233421
1001.05 1.23594e-09 1.00011 0.233262
1001.05 1.23328e-09 1.00011 0.233283
1000.8 9.36218e-10 1.00011 0.233354
1000.8 9.3676e-10 1.00011 0.233388
1000 0 1.00011 0.233364
1001.05 1.22545e-09 1.00011 0.23326
1000.8 9.39101e-10 1.00011 0.233365
1000.8 9.37445e-10 1.00011 0.233395
1000.85 1.00116e-09 1.00011 0.233414
1000.85 1.0017e-09 1.00011 0.233415
1000.85 1.00142e-09 1.00011 0.233425
1000.84 9.87154e-10 1.00011 0.2334
1001.05 1.22458e-09 1.00011 0.233245
1000.79 9.39083e-10 1.00011 0.233354
1000.8 9.36466e-10 1.00011 0.233324
1000.8 9.36147e-10 1.00011 0.233375
1000.85 1.00103e-09 1.00011 0.233386
1000.85 1.00003e-09 1.00011 0.233412
1000.85 1.00078e-09 1.00011 0.23342
1000.84 9.85227e-10 1.00011 0.233408
1001.05 1.22502e-09 1.00011 0.233238
1000.84 9.85877e-10 1.00011 0.233408
1000.8 9.3927e-10 1.00011 0.233361
1000.85 1.00259e-09 1.00011 0.233418
1000.84 9.876e-10 1.00011 0.233387
1000.84 9.87771e-10 1.00011 0.233367
1000.79 9.39306e-10 1.00011 0.233354
1000.79 9.39105e-10 1.00011 0.233353
1000.86 1.00147e-09 1.00011 0.233432
1001.05 1.22913e-09 1.00011 0.233227
1000 0 1.00011 0.233379
1001.05 1.22257e-09 1.00011 0.233251
1001.05 1.22708e-09 1.00011 0.233234
1000.8 9.38659e-10 1.00011 0.233409
1001.05 1.22334e-09 1.00011 0.233241
1000.8 9.40205e-10 1.00011 0.233361
1000.8 9.38963e-10 1.00011 0.233388
1000.85 1.00149e-09 1.00011 0.233414
1001.05 1.22259e-09 1.00011 0.233246
1001.05 1.22247e-09 1.00011 0.233255
1000.79 9.40352e-10 1.00011 0.233348
1000.8 9.36935e-10 1.00011 0.23341
1000.8 9.398e-10 1.00011 0.233396
1000.85 9.9911e-10 1.00011 0.233416
1000.8 9.40496e-10 1.00011 0.233352
1000.85 1.00249e-09 1.00011 0.233414
1000.85 1.00286e-09 1.00011 0.233408
1000.84 9.89479e-10 1.00011 0.233366
1001.06 1.22287e-09 1.00011 0.233259
1000.79 9.40482e-10 1.00011 0.233349
1000.79 9.39923e-10 1.00011 0.233346
1000.86 1.00099e-09 1.00011 0.233424
1000.85 9.99024e-10 1.00011 0.233436
1000.85 9.97893e-10 1.00011 0.233405
1000.84 9.88139e-10 1.00011 0.233383
1000.85 1.00272e-09 1.00011 0.233415
1000.84 9.84859e-10 1.00011 0.233361
1000.84 9.84567e-10 1.00011 0.233357
1000.84 9.84819e-10 1.00011 0.233312
1000.79 9.38322e-10 1.00011 0.233335
1001.06 1.22393e-09 1.00011 0.233262
1000 0 1.00011 0.233413
1000 0 1.00011 0.233406
1000 0 1.00011 0.233398
1001.06 1.22428e-09 1.00011 0.233255
1000 0 1.00011 0.233387
1001.05 1.22429e-09 1.00011 0.233251
1000 0 1.00011 0.233375
1001.05 1.23048e-09 1.00011 0.233224
1001.05 1.2338e-09 1.00011 0.233238
1000.8 9.36519e-10 1.00011 0.233382
1000.8 9.36616e-10 1.00011 0.233328
1001.05 1.23544e-09 1.00011 0.23326
1000 0 1.00011 0.2334
1001.05 1.23625e-09 1.00011 0.233262
1000.8 9.37945e-10 1.00011 0.233307
1000.8 9.3696e-10 1.00011 0.233354
1000.85 1.00226e-09 1.00011 0.233365
1000.8 9.37421e-10 1.00011 0.233402
1000.85 1.00154e-09 1.00011 0.23342
1000.8 9.37478e-10 1.00011 0.233306
1000.85 1.00086e-09 1.00011 0.233338
1000.85 1.00042e-09 1.00011 0.233394
1000.84 9.87655e-10 1.00011 0.233379
1000.85 9.9945e-10 1.00011 0.233439
1000.84 9.8633e-10 1.00011 0.233424
1001.05 1.23553e-09 1.00011 0.233255
1001.05 1.23292e-09 1.00011 0.233294
1000.8 9.36298e-10 1.00011 0.233355
1000.8 9.36779e-10 1.00011 0.233389
1000 0 1.00011 0.233364
1001.05 1.22557e-09 1.00011 0.233279
1000.8 9.3913e-10 1.00011 0.233366
1000.8 9.37449e-10 1.00011 0.233397
1000.85 1.00106e-09 1.00011 0.233413
1000.85 1.00135e-09 1.00011 0.233426
1000.85 1.0016e-09 1.00011 0.233413
1000.84 9.87132e-10 1.00011 0.233401
1001.05 1.22472e-09 1.00011 0.233245
1000.79 9.39161e-10 1.00011 0.233354
1000.8 9.36392e-10 1.00011 0.233324
1000.8 9.3612e-10 1.00011 0.233377
1000.85 1.00114e-09 1.00011 0.233385
1000.85 1.00017e-09 1.00011 0.233411
1001.05 1.22488e-09 1.00011 0.233239
1000.8 9.39227e-10 1.00011 0.23336
1000.85 1.00267e-09 1.00011 0.233418
1000.85 1.00089e-09 1.00011 0.233422
1000.84 9.85341e-10 1.00011 0.233409
1000.84 9.87653e-10 1.00011 0.233387
1000.84 9.85946e-10 1.00011 0.233409
1000.84 9.87864e-10 1.00011 0.233366
1000.79 9.39232e-10 1.00011 0.233354
1000.86 1.00155e-09 1.00011 0.233432
1000.79 9.3902e-10 1.00011 0.233353
1000.85 1.00365e-09 1.00011 0.233355
1000.85 1.00234e-09 1.00011 0.233405
1000.84 9.88901e-10 1.00011 0.233381
1000.84 9.87992e-10 1.00011 0.23341
1000.84 9.88381e-10 1.00011 0.233407
1000.84 9.92394e-10 1.00011 0.233402
1000.8 9.39293e-10 1.00011 0.233356
1000.84 9.92215e-10 1.00011 0.233381
1000.85 1.00309e-09 1.00011 0.233428
1000.84 9.85106e-10 1.00011 0.233382
1000.84 9.88701e-10 1.00011 0.233338
1000.84 9.9438e-10 1.00011 0.233332
1000.79 9.38792e-10 1.00011 0.233351
1000.85 1.00133e-09 1.00011 0.233434
1000.86 1.00142e-09 1.00011 0.233429
1000.84 9.8829e-10 1.00011 0.233411
1000.8 9.37003e-10 1.00011 0.233412
1001.06 1.22264e-09 1.00011 0.233255
1001.05 1.22274e-09 1.00011 0.233246
1000.79 9.40444e-10 1.00011 0.233348
1000.8 9.39812e-10 1.00011 0.2334
1000.85 9.99074e-10 1.00011 0.233416
1000.8 9.40561e-10 1.00011 0.233352
1000.85 1.00277e-09 1.00011 0.233409
1000.85 1.0024e-09 1.00011 0.233416
1000.84 9.89432e-10 1.00011 0.233363
1001.06 1.22269e-09 1.00011 0.233258
1000.79 9.40395e-10 1.00011 0.233349
1000.79 9.39827e-10 1.00011 0.233346
1000.86 1.00105e-09 1.00011 0.233425
1000.85 9.99582e-10 1.00011 0.233435
1000.85 9.98037e-10 1.00011 0.233406
1000.84 9.88662e-10 1.00011 0.233382
1000.85 1.00278e-09 1.00011 0.233416
1000.84 9.84934e-10 1.00011 0.233363
1000.84 9.84771e-10 1.00011 0.233357
1000.84 9.8499e-10 1.00011 0.233318
1001.06 1.22329e-09 1.00011 0.233261
1000.79 9.39495e-10 1.00011 0.233343
1000.85 1.00205e-09 1.00011 0.233425
1000.86 1.00219e-09 1.00011 0.233423
1000.84 9.89701e-10 1.00011 0.233404
1000.84 1.00326e-09 1.00011 0.233416
1000.84 9.96413e-10 1.00011 0.233357
1000.84 9.92049e-10 1.00011 0.233341
1000.84 9.83539e-10 1.00011 0.23337
1000.84 1.00106e-09 1.00011 0.233285
1000.84 1.0065e-09 1.00011 0.233292
1000.79 9.38871e-10 1.00011 0.233339
1000.86 1.00162e-09 1.00011 0.233425
1000.79 9.37732e-10 1.00011 0.233332
1000.79 9.38202e-10 1.00011 0.233335
1001.06 1.22453e-09 1.00011 0.233299
1001.06 1.22374e-09 1.00011 0.233284
1000 0 1.00011 0.233347
1000 0 1.00011 0.233413
1000 0 1.00011 0.233406
1001.06 1.22417e-09 1.00011 0.233258
1000 0 1.00011 0.233396
1001.06 1.22411e-09 1.00011 0.233255
1000 0 1.00011 0.233386
1001.06 1.22445e-09 1.00011 0.233251
1000 0 1.00011 0.233375
1000.8 9.3742e-10 1.00011 0.233402
1000.8 9.37016e-10 1.00011 0.233355
1000.85 1.0014e-09 1.00011 0.233419
1000.85 1.00214e-09 1.00011 0.233366
1000.8 9.38039e-10 1.00011 0.233308
1001.05 1.23584e-09 1.00011 0.233262
1000.8 9.37359e-10 1.00011 0.233305
1000.85 1.00089e-09 1.00011 0.233338
1000.85 1.00046e-09 1.00011 0.233394
1000.84 9.87508e-10 1.00011 0.233376
1000.85 9.99456e-10 1.00011 0.233438
1000.84 9.86202e-10 1.00011 0.233424
1000.85 1.00029e-09 1.00011 0.233334
1000.84 9.92317e-10 1.00011 0.233346
1000.84 9.86096e-10 1.00011 0.233405
1000.84 9.86813e-10 1.00011 0.233361
1000.84 9.84902e-10 1.00011 0.233431
1000.84 9.85736e-10 1.00011 0.233396
1000.8 9.36466e-10 1.00011 0.233324
1000.8 9.36147e-10 1.00011 0.233378
1000.85 1.00103e-09 1.00011 0.233385
1000.85 1.00003e-09 1.00011 0.233411
1001.05 1.22502e-09 1.00011 0.233241
1000.8 9.3927e-10 1.00011 0.233358
1000.85 1.00259e-09 1.00011 0.233417
1000.85 1.00078e-09 1.00011 0.233423
1000.84 9.85227e-10 1.00011 0.233409
1000.84 9.85877e-10 1.00011 0.233409
1000.84 9.876e-10 1.00011 0.233386
1000.84 9.87771e-10 1.00011 0.233365
1000.79 9.39306e-10 1.00011 0.233354
1000.86 1.00147e-09 1.00011 0.233432
1000.79 9.39105e-10 1.00011 0.233353
1000.85 1.00366e-09 1.00011 0.233354
1000.85 1.00237e-09 1.00011 0.233405
1000.84 9.88805e-10 1.00011 0.23338
1000.84 9.8796e-10 1.00011 0.23341
1000.8 9.39228e-10 1.00011 0.233356
1000.85 1.00313e-09 1.00011 0.233427
1000.84 9.85275e-10 1.00011 0.233382
1000.84 9.88333e-10 1.00011 0.233408
1000.84 9.92276e-10 1.00011 0.233401
1000.84 9.88767e-10 1.00011 0.233336
1000.84 9.92084e-10 1.00011 0.233383
1000.84 9.94108e-10 1.00011 0.23333
1000.86 1.00141e-09 1.00011 0.233434
1000.84 9.88343e-10 1.00011 0.233412
1000.79 9.38702e-10 1.00011 0.233351
1000.86 1.00149e-09 1.00011 0.233429
1000.84 9.79935e-10 1.00011 0.233354
1000.84 9.75736e-10 1.00011 0.233403
1000.84 9.73407e-10 1.00011 0.233366
1000.84 9.74049e-10 1.00011 0.233406
1000.84 9.76056e-10 1.00011 0.233389
1000.84 9.67367e-10 1.00011 0.23339
1000.85 1.00255e-09 1.00011 0.233433
1000.84 9.68883e-10 1.00011 0.233352
1000.84 9.82971e-10 1.00011 0.233396
1000.84 9.99888e-10 1.00011 0.233323
1000.84 9.88928e-10 1.00011 0.233287
1000.84 9.73977e-10 1.00011 0.233295
1000.79 9.39594e-10 1.00011 0.23335
1000.86 1.00206e-09 1.00011 0.233429
1000.84 9.88916e-10 1.00011 0.233416
1000.84 9.88761e-10 1.00011 0.233402
1000.84 9.90494e-10 1.00011 0.233376
1001.06 1.22287e-09 1.00011 0.233258
1000.85 9.99024e-10 1.00011 0.233433
1000.79 9.39923e-10 1.00011 0.233346
1000.79 9.40482e-10 1.00011 0.233349
1000.86 1.00099e-09 1.00011 0.233426
1000.85 9.97893e-10 1.00011 0.233407
1000.84 9.88139e-10 1.00011 0.233382
1000.85 1.00272e-09 1.00011 0.233417
1000.84 9.84567e-10 1.00011 0.233355
1000.84 9.84859e-10 1.00011 0.233364
1000.84 9.84819e-10 1.00011 0.233324
1001.06 1.22311e-09 1.00011 0.233261
1000.79 9.39395e-10 1.00011 0.233343
1000.85 1.0021e-09 1.00011 0.233425
1000.86 1.00223e-09 1.00011 0.233424
1000.84 9.89745e-10 1.00011 0.233404
1000.84 1.00079e-09 1.00011 0.233415
1000.84 9.96544e-10 1.00011 0.233355
1000.84 9.89815e-10 1.00011 0.233335
1000.84 9.83739e-10 1.00011 0.233371
1000.84 1.00116e-09 1.00011 0.233291
1000.84 1.00645e-09 1.00011 0.233293
1000.79 9.39438e-10 1.00011 0.233341
1000.86 1.00224e-09 1.00011 0.233424
1000.84 9.85173e-10 1.00011 0.233395
1000.84 9.85019e-10 1.00011 0.233405
1000.84 9.86233e-10 1.00011 0.233367
1000.84 8.62949e-10 1.00011 0.233384
1000.84 9.68585e-10 1.00011 0.233278
1000.84 9.04902e-10 1.00011 0.233246
1000.84 1.00948e-09 1.00011 0.233304
1000.84 9.55613e-10 1.00011 0.233242
1000.79 9.38758e-10 1.00011 0.233338
1000.86 1.00143e-09 1.00011 0.233424
1000.86 1.00165e-09 1.00011 0.233426
1000.84 9.884e-10 1.00011 0.233419
1000.86 1.0018e-09 1.00011 0.233425
1000.79 9.37096e-10 1.00011 0.233331
1000.79 9.37606e-10 1.00011 0.233332
1001.06 1.22516e-09 1.00011 0.233299
1000.79 9.38322e-10 1.00011 0.233335
1001.06 1.22433e-09 1.00011 0.233305
1000 0 1.00011 0.233351
1001.06 1.22393e-09 1.00011 0.233302
1000 0 1.00011 0.233375
1000 0 1.00011 0.233413
1001.06 1.22382e-09 1.00011 0.233259
1001.06 1.22398e-09 1.00011 0.233258
1000 0 1.00011 0.233404
1000 0 1.00011 0.233396
1001.06 1.22428e-09 1.00011 0.233255
1000 0 1.00011 0.233386
1000.85 9.9945e-10 1.00011 0.233436
1000.85 1.00042e-09 1.00011 0.233395
1000.84 9.8633e-10 1.00011 0.233423
1000.84 9.87655e-10 1.00011 0.233374
1000.85 1.00086e-09 1.00011 0.233339
1000.8 9.37478e-10 1.00011 0.233305
1000.85 1.00055e-09 1.00011 0.233333
1000.84 9.92676e-10 1.00011 0.233345
1000.84 9.86662e-10 1.00011 0.233405
1000.84 9.87676e-10 1.00011 0.233354
1000.84 9.85551e-10 1.00011 0.23343
1000.84 9.86578e-10 1.00011 0.233395
1000.84 1.01459e-09 1.00011 0.233338
1000.84 1.0032e-09 1.00011 0.233329
1000.84 1.02346e-09 1.00011 0.233382
1000.84 1.04708e-09 1.00011 0.233317
1000.84 1.02245e-09 1.00011 0.23339
1000.84 1.0486e-09 1.00011 0.233362
1000.85 1.00365e-09 1.00011 0.233353
1000.85 1.00234e-09 1.00011 0.233405
1000.84 9.88901e-10 1.00011 0.233379
1000.84 9.87992e-10 1.00011 0.233411
1000.8 9.39293e-10 1.00011 0.233355
1000.85 1.00309e-09 1.00011 0.233426
1000.84 9.85106e-10 1.00011 0.233382
1000.84 9.88381e-10 1.00011 0.23341
1000.84 9.92394e-10 1.00011 0.233399
1000.84 9.92215e-10 1.00011 0.233386
1000.84 9.88701e-10 1.00011 0.233334
1000.84 9.9438e-10 1.00011 0.233328
1000.85 1.00133e-09 1.00011 0.233434
1000.84 9.8829e-10 1.00011 0.233412
1000.79 9.38792e-10 1.00011 0.233351
1000.86 1.00142e-09 1.00011 0.233428
1000.84 9.8037e-10 1.00011 0.233355
1000.84 9.76287e-10 1.00011 0.233404
1000.84 9.74217e-10 1.00011 0.233364
1000.84 9.7479e-10 1.00011 0.233407
1000.85 1.00259e-09 1.00011 0.233433
1000.84 9.83203e-10 1.00011 0.233397
1000.84 9.99672e-10 1.00011 0.233322
1000.84 9.76719e-10 1.00011 0.233392
1000.84 9.68437e-10 1.00011 0.233387
1000.84 9.89083e-10 1.00011 0.233289
1000.84 9.69789e-10 1.00011 0.233353
1000.84 9.7477e-10 1.00011 0.233291
1000.84 9.88952e-10 1.00011 0.233416
1000.84 9.90569e-10 1.00011 0.233375
1000.84 9.88835e-10 1.00011 0.233402
1000.79 9.39475e-10 1.00011 0.233349
1000.86 1.00211e-09 1.00011 0.233428
1000.84 1.03611e-09 1.00011 0.233325
1000.84 1.03907e-09 1.00011 0.233381
1000.84 1.06505e-09 1.00011 0.233386
1000.84 1.05294e-09 1.00011 0.233366
1000.84 9.84438e-10 1.00011 0.233412
1000.84 1.056e-09 1.00011 0.233282
1000.84 1.0094e-09 1.00011 0.23334
1000.84 9.64984e-10 1.00011 0.233267
1000.84 1.00559e-09 1.00011 0.233252
1000.79 9.39821e-10 1.00011 0.233346
1000.86 9.98835e-10 1.00011 0.23343
1000.84 9.86595e-10 1.00011 0.233399
1000.84 9.87703e-10 1.00011 0.233378
1000.84 9.89054e-10 1.00011 0.233355
1000.84 9.87702e-10 1.00011 0.233355
1001.06 1.22329e-09 1.00011 0.233261
1000.79 9.39495e-10 1.00011 0.233343
1000.84 1.00326e-09 1.00011 0.233414
1000.86 1.00219e-09 1.00011 0.233425
1000.85 1.00205e-09 1.00011 0.233426
1000.84 9.89701e-10 1.00011 0.233405
1000.84 9.96413e-10 1.00011 0.233354
1000.84 9.92049e-10 1.00011 0.23333
1000.84 9.83539e-10 1.00011 0.233373
1000.84 1.0065e-09 1.00011 0.233294
1000.84 1.00106e-09 1.00011 0.233298
1000.79 9.39333e-10 1.00011 0.233341
1000.86 1.00228e-09 1.00011 0.233425
1000.84 9.85238e-10 1.00011 0.233396
1000.84 9.85072e-10 1.00011 0.233405
1000.84 9.86269e-10 1.00011 0.233367
1000.84 8.75609e-10 1.00011 0.233382
1000.84 9.67479e-10 1.00011 0.233279
1000.84 9.17034e-10 1.00011 0.233246
1000.84 1.00949e-09 1.00011 0.233302