# vtk DataFile Version 2.0
Wound Healing Simulation
ASCII
DATASET UNSTRUCTURED_GRID
POINTS 3012 float
69.9759 18.75 4
67.2507 60.3285 4
69.976 18.75 2
73.0099 25.446 4
71.1327 20.9142 4
68.6801 16.6661 4
67.827 19.9181 3.99095
67.2507 60.3286 2
71.1327 54.0858 4
68.6801 58.3339 4
65.6939 62.2254 4
65.3134 59.0084 3.9923
74.6784 42.3946 4
73.7221 47.2057 4
69.9759 18.75 0
73.0099 25.446 2
68.6801 16.6661 2
71.1327 20.9142 2
67.827 19.918 2
74.6792 32.6053 4
73.7222 27.7943 4
72.1454 23.1494 4
70.6167 26.2172 3.98929
68.8876 21.9512 3.99034
67.2507 14.6715 4
66.6383 17.9637 3.99171
65.8046 21.0127 3.98678
67.2507 60.3285 0
71.1327 54.0858 2
68.6801 58.3339 2
65.694 62.2255 2
65.3135 59.0085 2
72.1454 51.8506 4
69.9759 56.25 4
68.8386 53.1199 3.99041
64.0165 64.0165 4
66.612 57.1416 3.99184
63.8868 60.7719 3.99274
63.5053 57.7869 3.98753
60.3285 67.2507 4
74.6792 42.3947 2
73.7222 47.2057 2
74.9194 39.9526 4
74.2788 44.8158 4
72.171 42.0865 3.98914
73.0099 49.554 4
71.2522 46.6006 3.98956
73.0099 25.446 0
71.1327 20.9142 0
68.6801 16.6661 0
67.827 19.9181 0.0090493
74.6792 32.6053 2
73.7222 27.7943 2
67.2508 14.6715 2
72.1455 23.1494 2
70.6167 26.2173 2
66.6383 17.9637 2
68.8876 21.9511 2
65.8046 21.0127 2
74.9197 35.0474 4
74.2794 30.1841 4
72.1873 32.9416 3.98915
71.2807 28.4286 3.98906
69.8179 24.0544 3.9898
68.3556 26.9446 3.98515
66.7709 22.9227 3.98642
65.694 12.7746 4
65.3248 16.0961 3.99234
64.7201 19.1802 3.9872
63.9005 22.0169 3.98496
71.1327 54.0858 0
65.6939 62.2254 0
68.6801 58.3339 0
65.3134 59.0084 0.00769633
72.1455 51.8506 2
69.9759 56.25 2
68.8386 53.12 2
64.0165 64.0165 2
66.612 57.1417 2
63.8869 60.772 2
63.5054 57.787 2
62.2254 65.694 4
58.8937 65.4178 3.99302
69.7716 50.9941 3.98989
67.7854 55.1751 3.99118
66.6585 52.22 3.98664
62.3369 62.4323 3.99296
64.6673 56.0458 3.98753
62.206 59.4194 3.98799
61.8322 56.7023 3.98588
58.3339 68.6801 4
60.3285 67.2508 2
73.7221 47.2057 0
74.6784 42.3946 0
74.9197 39.9526 2
74.2794 44.8159 2
72.1709 42.0863 2
73.0099 49.554 2
71.2522 46.6005 2
75 37.5 4
72.408 39.8023 3.98896
71.7854 44.3545 3.98942
69.8133 41.792 3.98469
70.578 48.8172 3.98964
68.922 46.0202 3.98526
74.6792 32.6053 0
73.7222 27.7943 0
67.2507 14.6715 0
72.1454 23.1494 0
70.6167 26.2172 0.0107148
68.8876 21.9512 0.00965948
66.6383 17.9637 0.00829287
65.8046 21.0127 0.0132193
74.9197 35.0474 2
74.2794 30.1841 2
72.1873 32.9418 2
71.2807 28.4288 2
65.694 12.7745 2
65.3248 16.096 2
69.8179 24.0544 2
68.3555 26.9446 2
64.7201 19.1802 2
66.7708 22.9228 2
63.9004 22.0171 2
72.4158 35.2229 3.98897
71.8065 30.6741 3.98922
69.8486 33.2655 3.98441
68.9748 29.0328 3.9845
67.62 24.9034 3.9859
66.2099 27.6238 3.98333
64.0165 10.9835 4
64.7713 23.8141 3.98468
63.8909 14.3212 3.99266
63.5178 17.4311 3.98772
62.9186 20.2999 3.98528
62.1121 22.9199 3.98411
60.6842 11.0934 3.9928
57.6125 11.4374 3.9882
72.1454 51.8506 0
69.9759 56.25 0
68.8386 53.1199 0.00959185
64.0165 64.0165 0
63.8868 60.7719 0.00725946
66.612 57.1416 0.00815675
63.5053 57.7869 0.0124668
62.2255 65.694 2
58.8938 65.418 2
69.7716 50.9941 2
67.7854 55.1753 2
66.6586 52.2199 2
62.3369 62.4324 2
64.6674 56.0458 2
62.2061 59.4197 2
61.8323 56.7023 2
60.6688 63.9812 3.99297
57.0242 66.738 3.99313
57.5577 63.7001 3.98855
67.5171 50.1856 3.9861
65.71 54.186 3.98727
64.5538 51.4021 3.98462
60.7748 60.9512 3.98846
62.8318 55.0883 3.98606
60.6649 58.1798 3.9859
60.3405 55.8115 3.98509
56.25 69.9759 4
58.3339 68.6801 2
60.3285 67.2507 0
58.9211 9.65206 3.99287
62.2254 9.30607 4
73.0099 49.554 0
74.2788 44.8158 0
71.2522 46.6006 0.0104369
72.171 42.0865 0.0108619
74.9194 39.9526 0
75 37.5 2
72.4079 39.8022 2
71.7854 44.3544 2
69.8131 41.7918 2
70.578 48.8172 2
68.922 46.0199 2
72.4913 37.5115 3.98893
70.0499 39.6582 3.9841
69.4399 43.9113 3.98505
67.6137 41.502 3.98272
68.2757 48.1143 3.98563
66.727 45.4491 3.98356
74.9197 35.0474 0
74.2794 30.1841 0
72.1873 32.9416 0.0108507
71.2807 28.4286 0.0109385
65.694 12.7746 0
65.3248 16.0961 0.00765571
69.8179 24.0544 0.0102034
68.3556 26.9446 0.0148549
66.7709 22.9227 0.0135753
64.7201 19.1802 0.0127961
63.9005 22.0169 0.0150433
72.4157 35.2231 2
71.8064 30.6743 2
69.8485 33.2656 2
68.9747 29.0329 2
64.0165 10.9835 2
63.891 14.3211 2
63.5179 17.431 2
67.62 24.9034 2
66.2097 27.6238 2
62.9186 20.3001 2
64.7712 23.8142 2
62.1119 22.9202 2
60.6843 11.0933 2
57.6125 11.4372 2
70.0665 35.3902 3.9843
69.4758 31.1454 3.98441
67.6708 33.5861 3.98239
66.7874 29.6142 3.98263
65.5394 25.6859 3.98411
64.1682 28.2408 3.98268
62.3422 12.6501 3.99276
62.8779 24.6164 3.984
62.2016 15.7696 3.98808
61.8224 18.6637 3.98584
61.2341 21.3166 3.98408
60.4503 23.7004 3.98393
59.247 12.7671 3.9882
55.874 10.2252 3.98842
56.4065 13.0998 3.98546
69.7716 50.9941 0.0101122
62.2254 65.694 0
58.8937 65.4178 0.0069751
67.7854 55.1751 0.0088206
66.6585 52.22 0.013357
62.3369 62.4323 0.00704134
62.206 59.4194 0.0120149
64.6673 56.0458 0.0124721
61.8322 56.7023 0.0141198
60.6689 63.9814 2
57.0243 66.7382 2
57.5577 63.7004 2
67.5171 50.1854 2
65.7101 54.186 2
64.5538 51.402 2
60.7748 60.9515 2
62.832 55.0883 2
60.665 58.1799 2
60.3407 55.8114 2
55.0696 67.9345 3.99326
59.22 62.3772 3.98853
55.8035 64.9162 3.98866
56.328 62.1012 3.986
65.3488 49.4226 3.98419
63.7204 53.3114 3.98552
62.4648 50.6739 3.98357
59.3372 59.5746 3.98623
61.093 54.3343 3.98532
59.2983 57.0373 3.98461
59.257 55.2114 3.98523
48.1017 68.5812 3.98947
50.9477 69.9333 3.9935
54.0858 71.1327 4
56.25 69.976 2
58.3339 68.6801 0
57.0581 8.3324 3.99304
60.3285 7.74928 4
58.9212 9.65197 2
62.2255 9.30602 2
70.578 48.8172 0.0103551
71.7854 44.3545 0.0105819
68.922 46.0202 0.0147426
69.8133 41.792 0.0153051
72.408 39.8023 0.0110381
75 37.5 0
72.4912 37.5115 2
70.0496 39.6581 2
69.4398 43.9111 2
67.6135 41.5019 2
68.2757 48.114 2
66.7268 45.449 2
70.1378 37.521 3.984
67.8501 39.5142 3.98224
67.2405 43.4767 3.98316
65.5795 41.2161 3.98209
66.086 47.4297 3.98391
64.6768 44.861 3.98294
72.4158 35.2229 0.0110305
71.8065 30.6741 0.0107807
69.8486 33.2655 0.0155929
68.9748 29.0328 0.0155044
64.0165 10.9835 0
63.8909 14.3212 0.00734428
63.5178 17.4311 0.012279
67.62 24.9034 0.0140977
66.2099 27.6238 0.0166688
64.7713 23.8141 0.0153159
62.9186 20.2999 0.0147219
62.1121 22.9199 0.0158948
60.6842 11.0934 0.00720367
57.6125 11.4374 0.0117967
70.0662 35.3903 2
69.4756 31.1455 2
67.6705 33.586 2
66.7872 29.6141 2
62.3423 12.65 2
62.2016 15.7695 2
61.8225 18.6637 2
65.5392 25.6859 2
64.1678 28.2407 2
61.234 21.3169 2
62.8776 24.6166 2
60.4499 23.7008 2
59.247 12.7669 2
56.4065 13.0996 2
55.8741 10.2249 2
67.886 35.5448 3.98245
67.2807 31.6156 3.9825
65.7197 33.9211 3.98177
64.6848 30.1804 3.98159
63.56 26.3962 3.98347
62.2855 28.7597 3.98299
60.7766 14.21 3.9882
61.0721 25.3131 3.9839
60.6181 17.1082 3.98619
60.2349 19.7913 3.98464
59.6822 22.23 3.98328
59.0074 24.2908 3.98419
54.0369 9.12923 3.98883
57.9123 14.3164 3.98582
54.7872 12.0009 3.98533
55.3146 14.6307 3.98435
67.5171 50.1856 0.0139035
57.0242 66.738 0.00686688
60.6688 63.9812 0.00702593
57.5577 63.7001 0.0114481
65.71 54.186 0.0127279
64.5538 51.4021 0.0153813
60.7748 60.9512 0.0115413
60.6649 58.1798 0.0140956
62.8318 55.0883 0.0139373
60.3405 55.8115 0.0149142
55.0697 67.9347 2
59.22 62.3774 2
55.8036 64.9164 2
56.3281 62.1014 2
65.3487 49.4225 2
63.7205 53.3113 2
62.4648 50.6737 2
59.3373 59.5748 2
61.0932 54.3342 2
59.2985 57.0373 2
59.2572 55.2113 2
53.0416 69.0019 3.9934
53.9654 66.0174 3.98882
57.883 60.8845 3.98614
54.6838 63.2151 3.98603
55.2136 60.629 3.98475
63.2188 48.6802 3.98339
61.7618 52.5993 3.98459
60.3037 50.0453 3.98296
58.0239 58.282 3.98502
59.3459 53.976 3.98462
58.1387 55.8411 3.98346
50.108 67.8596 3.98923
47.4621 66.5843 3.98656
46.0557 69.1604 3.98969
48.1018 68.5816 2
48.8021 70.7243 3.99362
50.9478 69.9335 2
51.8506 72.1454 4
54.0858 71.1327 2
56.25 69.9759 0
55.1024 7.13732 3.99322
58.3339 6.31992 4
57.0582 8.33227 2
60.3286 7.74926 2
58.9211 9.65206 0.00712998
62.2254 9.30607 0
68.2757 48.1143 0.0143666
69.4399 43.9113 0.0149451
66.727 45.4491 0.0164375
67.6137 41.502 0.0172762
70.0499 39.6582 0.0158956
72.4913 37.5115 0.0110712
70.1375 37.521 2
67.8498 39.5142 2
67.2403 43.4767 2
65.5792 41.2161 2
66.0859 47.4296 2
64.6764 44.861 2
67.9462 37.5215 3.98203
65.8105 39.3732 3.98184
65.2001 43.0348 3.98238
63.7861 40.9374 3.98214
63.9904 46.7326 3.98321
62.8388 44.2316 3.98319
70.0665 35.3902 0.0157024
69.4758 31.1454 0.0155876
67.6708 33.5861 0.0176121
66.7874 29.6142 0.0173724
62.3422 12.6501 0.00724041
62.2016 15.7696 0.0119249
61.8224 18.6637 0.0141645
65.5394 25.6859 0.0158855
64.1682 28.2408 0.0173232
62.8779 24.6164 0.015997
61.2341 21.3166 0.0159213
60.4503 23.7004 0.016073
59.247 12.7671 0.0118003
56.4065 13.0998 0.0145358
55.874 10.2252 0.0115789
67.8857 35.5447 2
67.2804 31.6155 2
65.7193 33.9209 2
64.6843 30.1803 2
60.7766 14.2099 2
60.6182 17.1082 2
60.2349 19.7915 2
63.5597 26.3963 2
62.285 28.7597 2
59.682 22.2304 2
61.0716 25.3134 2
59.0068 24.2913 2
57.9123 14.3164 2
55.3147 14.6307 2
54.037 9.12891 2
54.7873 12.0007 2
65.8988 35.6634 3.9817
65.2083 32.1454 3.98143
64.3112 34.2431 3.98085
62.6236 30.621 3.98176
61.6796 27.0506 3.98338
60.8836 29.1204 3.98431
59.3136 15.6516 3.98609
59.3635 25.7691 3.98472
59.1311 18.3327 3.98533
58.756 20.8262 3.98352
58.3101 23.0616 3.98263
57.9999 24.6342 3.98496
52.1116 8.14808 3.98928
53.0579 11.0081 3.98566
56.6793 15.7247 3.985
53.8109 13.6683 3.98371
54.3789 15.982 3.98407
55.0696 67.9345 0.00673782
65.3488 49.4226 0.0158133
55.8035 64.9162 0.0113396
59.22 62.3772 0.0114726
56.328 62.1012 0.0140028
63.7204 53.3114 0.0144789
62.4648 50.6739 0.0164343
59.3372 59.5746 0.0137709
59.2983 57.0373 0.0153877
61.093 54.3343 0.014684
59.257 55.2114 0.0147654
53.0417 69.0021 2
53.9655 66.0177 2
57.8831 60.8848 2
54.6838 63.2154 2
55.2136 60.6293 2
63.2186 48.6801 2
61.7619 52.5991 2
60.3035 50.045 2
58.024 58.2821 2
59.3461 53.9758 2
58.1389 55.841 2
52.0689 67.0032 3.98901
52.9526 64.224 3.98606
56.6518 59.5056 3.98511
53.682 61.6313 3.98468
[...]
POINT_DATA 3012
SCALARS Jp_lamdaP float 4
LOOKUP_TABLE default
1 1 1 1
1 1 1 1
1 1 1 1
1 1 1 1
1 1 1 1
1 1 1 1
0.999992 1 1 0.999992
1 1 1 1
1 1 1 1
1 1 1 1
1 1 1 1
1 1 1 1
1 1 1 1
1 1 1 1
1 1 1 1
1 1 1 1
1 1 1 1
1 1 1 1
0.999993 1 1 0.999993
1 1 1 1
1 1 1 1
1 1 1 1
0.99998 1 1 0.99998
0.99999 1 1 0.99999
1 1 1 1
0.999995 1 1 0.999995
0.999963 1 1 0.999963
1 1 1 1
1 1 1 1
1 1 1 1
1 1 1 1
1 1 1 1
1 1 1 1
1 1 1 1
0.999999 1 1 0.999999
1 1 1 1
1 1 1 1
1 1 1 1
0.999975 1 1 0.999975
1 1 1 1
1 1 1 1
1 1 1 1
1 1 1 1
1 1 1 1
0.999987 1 1 0.999987
1 1 1 1
0.999993 1 1 0.999993
1 1 1 1
1 1 1 1
1 1 1 1
0.999993 1 1 0.999993
1 1 1 1
1 1 1 1
1 1 1 1
1 1 1 1
0.999981 1 1 0.999981
0.999995 1 1 0.999995
0.99999 1 1 0.99999
0.999962 1 1 0.999962
1 1 1 1
1 1 1 1
0.999988 1 1 0.999988
0.999976 1 1 0.999976
0.999986 1 1 0.999986
0.999931 1 1 0.999931
0.999949 1 1 0.999949
1 1 1 1
0.999997 1 1 0.999997
0.999972 1 1 0.999972
0.999902 1 1 0.999902
1 1 1 1
1 1 1 1
1 1 1 1
1 1 1 1
1 1 1 1
1 1 1 1
0.999999 1 1 0.999999
1 1 1 1
1 1 1 1
1 1 1 1
0.999976 1 1 0.999976
1 1 1 1
1 1 1 1
0.999997 1 1 0.999997
1 1 1 1
0.999943 1 1 0.999943
1 1 1 1
0.999968 1 1 0.999968
0.999982 1 1 0.999982
0.999926 1 1 0.999926
1 1 1 1
1 1 1 1
1 1 1 1
1 1 1 1
1 1 1 1
1 1 1 1
0.999988 1 1 0.999988
1 1 1 1
0.999994 1 1 0.999994
1 1 1 1
0.999985 1 1 0.999985
0.99999 1 1 0.99999
0.999907 1 1 0.999907
0.999995 1 1 0.999995
0.999918 1 1 0.999918
1 1 1 1
1 1 1 1
1 1 1 1
1 1 1 1
0.999981 1 1 0.999981
0.99999 1 1 0.99999
0.999996 1 1 0.999996
0.999961 1 1 0.999961
1 1 1 1
1 1 1 1
0.99998 1 1 0.99998
0.999976 1 1 0.999976
1 1 1 1
0.999998 1 1 0.999998
0.999986 1 1 0.999986
0.999927 1 1 0.999927
0.999971 1 1 0.999971
0.999952 1 1 0.999952
0.999902 1 1 0.999902
0.999986 1 1 0.999986
0.999974 1 1 0.999974
0.999909 1 1 0.999909
0.999916 1 1 0.999916
0.999937 1 1 0.999937
0.999873 1 1 0.999873
1 1 1 1
0.999896 1 1 0.999896
1 1 1 1
0.999978 1 1 0.999978
0.999909 1 1 0.999909
0.999877 1 1 0.999877
1 1 1 1
0.999985 1 1 0.999985
1 1 1 1
1 1 1 1
1 1 1 1
1 1 1 1
1 1 1 1
1 1 1 1
0.999976 1 1 0.999976
1 1 1 1
1 1 1 1
0.999998 1 1 0.999998
1 1 1 1
0.999943 1 1 0.999943
1 1 1 1
0.999969 1 1 0.999969
0.999982 1 1 0.999982
0.999923 1 1 0.999923
1 1 1 1
1 1 1 1
0.999989 1 1 0.999989
0.999932 1 1 0.999932
0.999957 1 1 0.999957
0.999889 1 1 0.999889
0.999987 1 1 0.999987
0.999915 1 1 0.999915
0.99993 1 1 0.99993
0.999901 1 1 0.999901
1 1 1 1
1 1 1 1
1 1 1 1
1 1 1 1
1 1 1 1
1 1 1 1
1 1 1 1
0.999995 1 1 0.999995
0.999989 1 1 0.999989
1 1 1 1
1 1 1 1
0.999986 1 1 0.999986
0.999991 1 1 0.999991
0.999907 1 1 0.999907
0.999996 1 1 0.999996
0.999918 1 1 0.999918
0.999985 1 1 0.999985
0.999905 1 1 0.999905
0.999912 1 1 0.999912
0.999865 1 1 0.999865
0.999924 1 1 0.999924
0.999872 1 1 0.999872
1 1 1 1
1 1 1 1
0.999972 1 1 0.999972
0.999976 1 1 0.999976
1 1 1 1
1 1 1 1
0.999986 1 1 0.999986
0.999923 1 1 0.999923
0.999955 1 1 0.999955
0.999969 1 1 0.999969
0.999903 1 1 0.999903
0.999986 1 1 0.999986
0.999974 1 1 0.999974
0.999902 1 1 0.999902
0.999918 1 1 0.999918
1 1 1 1
1 1 1 1
0.999978 1 1 0.999978
0.999938 1 1 0.999938
0.999869 1 1 0.999869
0.999908 1 1 0.999908
0.999898 1 1 0.999898
0.999877 1 1 0.999877
1 1 1 1
0.999986 1 1 0.999986
0.999903 1 1 0.999903
0.99991 1 1 0.99991
0.99986 1 1 0.99986
0.999854 1 1 0.999854
0.999889 1 1 0.999889
0.999849 1 1 0.999849
1 1 1 1
0.999873 1 1 0.999873
0.999983 1 1 0.999983
0.999917 1 1 0.999917
0.999883 1 1 0.999883
0.99987 1 1 0.99987
0.999985 1 1 0.999985
0.999987 1 1 0.999987
0.999931 1 1 0.999931
0.999998 1 1 0.999998
1 1 1 1
1 1 1 1
1 1 1 1
0.999943 1 1 0.999943
1 1 1 1
0.999983 1 1 0.999983
0.999969 1 1 0.999969
0.999921 1 1 0.999921
1 1 1 1
1 1 1 1
0.999989 1 1 0.999989
0.999932 1 1 0.999932
0.999957 1 1 0.999957
0.999889 1 1 0.999889
0.999987 1 1 0.999987
0.999917 1 1 0.999917
0.99993 1 1 0.99993
0.999898 1 1 0.999898
1 1 1 1
0.999989 1 1 0.999989
0.999989 1 1 0.999989
0.999938 1 1 0.999938
0.999881 1 1 0.999881
0.999904 1 1 0.999904
0.999864 1 1 0.999864
0.999936 1 1 0.999936
0.99989 1 1 0.99989
0.999895 1 1 0.999895
0.999881 1 1 0.999881
0.999993 1 1 0.999993
1 1 1 1
1 1 1 1
1 1 1 1
1 1 1 1
1 1 1 1
1 1 1 1
1 1 1 1
1 1 1 1
0.999996 1 1 0.999996
0.999992 1 1 0.999992
0.999918 1 1 0.999918
0.999907 1 1 0.999907
0.999986 1 1 0.999986
1 1 1 1
0.999985 1 1 0.999985
0.999905 1 1 0.999905
0.999912 1 1 0.999912
0.999864 1 1 0.999864
0.999924 1 1 0.999924
0.999872 1 1 0.999872
0.999904 1 1 0.999904
0.999865 1 1 0.999865
0.999866 1 1 0.999866
0.999849 1 1 0.999849
0.999877 1 1 0.999877
0.999856 1 1 0.999856
0.999986 1 1 0.999986
0.999974 1 1 0.999974
0.999894 1 1 0.999894
0.999921 1 1 0.999921
1 1 1 1
1 1 1 1
0.999978 1 1 0.999978
0.999938 1 1 0.999938
0.999864 1 1 0.999864
0.999901 1 1 0.999901
0.999907 1 1 0.999907
0.999878 1 1 0.999878
1 1 1 1
0.999986 1 1 0.999986
0.9999 1 1 0.9999
0.99991 1 1 0.99991
0.999859 1 1 0.999859
0.999859 1 1 0.999859
1 1 1 1
0.999982 1 1 0.999982
0.999921 1 1 0.999921
0.99989 1 1 0.99989
0.999848 1 1 0.999848
0.99988 1 1 0.99988
0.999873 1 1 0.999873
0.999869 1 1 0.999869
0.999985 1 1 0.999985
0.999928 1 1 0.999928
0.999987 1 1 0.999987
0.999865 1 1 0.999865
0.999855 1 1 0.999855
0.999838 1 1 0.999838
0.999835 1 1 0.999835
0.999866 1 1 0.999866
0.999848 1 1 0.999848
0.999985 1 1 0.999985
0.999868 1 1 0.999868
0.999931 1 1 0.999931
0.999886 1 1 0.999886
0.999864 1 1 0.999864
0.999877 1 1 0.999877
0.999989 1 1 0.999989
0.999933 1 1 0.999933
0.999923 1 1 0.999923
0.999901 1 1 0.999901
0.999931 1 1 0.999931
1 1 1 1
1 1 1 1
0.999989 1 1 0.999989
0.999958 1 1 0.999958
0.999889 1 1 0.999889
0.999988 1 1 0.999988
0.999929 1 1 0.999929
0.999918 1 1 0.999918
0.999895 1 1 0.999895
1 1 1 1
0.999989 1 1 0.999989
0.99999 1 1 0.99999
0.999938 1 1 0.999938
0.99988 1 1 0.99988
0.999904 1 1 0.999904
0.999863 1 1 0.999863
0.999936 1 1 0.999936
0.999893 1 1 0.999893
0.999894 1 1 0.999894
0.999885 1 1 0.999885
1 1 1 1
0.99999 1 1 0.99999
0.999938 1 1 0.999938
0.999938 1 1 0.999938
0.999899 1 1 0.999899
0.999861 1 1 0.999861
0.999877 1 1 0.999877
0.999855 1 1 0.999855
0.999897 1 1 0.999897
0.999877 1 1 0.999877
0.999862 1 1 0.999862
0.999992 1 1 0.999992
0.999945 1 1 0.999945
0.999994 1 1 0.999994
0.999993 1 1 0.999993
1 1 1 1
1 1 1 1
1 1 1 1
1 1 1 1
1 1 1 1
1 1 1 1
1 1 1 1
1 1 1 1
1 1 1 1
1 1 1 1
1 1 1 1
0.999924 1 1 0.999924
0.999912 1 1 0.999912
0.999872 1 1 0.999872
0.999864 1 1 0.999864
0.999905 1 1 0.999905
0.999985 1 1 0.999985
0.999904 1 1 0.999904
0.999865 1 1 0.999865
0.999866 1 1 0.999866
0.99985 1 1 0.99985
0.999877 1 1 0.999877
0.999856 1 1 0.999856
0.999864 1 1 0.999864
0.999854 1 1 0.999854
0.99985 1 1 0.99985
0.999844 1 1 0.999844
0.999861 1 1 0.999861
0.999859 1 1 0.999859
0.999897 1 1 0.999897
0.99991 1 1 0.99991
0.999858 1 1 0.999858
0.999864 1 1 0.999864
1 1 1 1
0.999982 1 1 0.999982
0.999924 1 1 0.999924
0.99989 1 1 0.99989
0.999847 1 1 0.999847
0.999873 1 1 0.999873
0.999877 1 1 0.999877
0.999869 1 1 0.999869
0.999985 1 1 0.999985
0.999926 1 1 0.999926
0.999987 1 1 0.999987
0.999863 1 1 0.999863
0.999855 1 1 0.999855
0.999835 1 1 0.999835
0.999836 1 1 0.999836
0.999985 1 1 0.999985
0.999931 1 1 0.999931
0.999889 1 1 0.999889
0.999867 1 1 0.999867
0.999849 1 1 0.999849
0.999862 1 1 0.999862
0.999868 1 1 0.999868
0.999878 1 1 0.999878
0.999933 1 1 0.999933
0.999898 1 1 0.999898
0.999989 1 1 0.999989
0.999923 1 1 0.999923
0.999842 1 1 0.999842
0.99983 1 1 0.99983
0.999823 1 1 0.999823
0.999833 1 1 0.999833
0.999865 1 1 0.999865
0.999856 1 1 0.999856
0.999934 1 1 0.999934
0.99988 1 1 0.99988
0.999897 1 1 0.999897
0.999865 1 1 0.999865
0.999855 1 1 0.999855
0.999882 1 1 0.999882
0.999991 1 1 0.999991
0.999924 1 1 0.999924
0.999902 1 1 0.999902
0.99989 1 1 0.99989
0.999882 1 1 0.999882
1 1 1 1
0.99988 1 1 0.99988
0.99999 1 1 0.99999
0.999989 1 1 0.999989
0.999938 1 1 0.999938
0.999904 1 1 0.999904
0.999863 1 1 0.999863
0.999936 1 1 0.999936
0.999893 1 1 0.999893
0.999896 1 1 0.999896
0.999889 1 1 0.999889
1 1 1 1
0.99999 1 1 0.99999
0.999938 1 1 0.999938
0.999938 1 1 0.999938
0.999898 1 1 0.999898
0.99986 1 1 0.99986
0.999877 1 1 0.999877
0.999854 1 1 0.999854
0.999897 1 1 0.999897
0.999879 1 1 0.999879
0.999864 1 1 0.999864
0.999991 1 1 0.999991
0.999939 1 1 0.999939
0.999898 1 1 0.999898
0.999897 1 1 0.999897
0.999881 1 1 0.999881
0.999859 1 1 0.999859
0.999865 1 1 0.999865
0.999867 1 1 0.999867
0.999866 1 1 0.999866
0.999848 1 1 0.999848
0.999992 1 1 0.999992
0.999935 1 1 0.999935
0.999942 1 1 0.999942
0.999906 1 1 0.999906
0.999947 1 1 0.999947
0.999995 1 1 0.999995
0.999994 1 1 0.999994
1 1 1 1
0.999994 1 1 0.999994
1 1 1 1
1 1 1 1
1 1 1 1
1 1 1 1
1 1 1 1
1 1 1 1
1 1 1 1
1 1 1 1
1 1 1 1
1 1 1 1
1 1 1 1
0.999877 1 1 0.999877
0.999866 1 1 0.999866
0.999856 1 1 0.999856
0.99985 1 1 0.99985
0.999865 1 1 0.999865
0.999904 1 1 0.999904
0.999864 1 1 0.999864
0.999855 1 1 0.999855
0.99985 1 1 0.99985
0.999843 1 1 0.999843
0.999861 1 1 0.999861
0.999859 1 1 0.999859
0.999853 1 1 0.999853
0.999853 1 1 0.999853
0.999845 1 1 0.999845
0.999837 1 1 0.999837
0.999864 1 1 0.999864
0.999864 1 1 0.999864
0.999861 1 1 0.999861
0.999855 1 1 0.999855
0.999833 1 1 0.999833
0.999837 1 1 0.999837
0.999985 1 1 0.999985
0.999931 1 1 0.999931
0.999892 1 1 0.999892
0.999868 1 1 0.999868
0.99985 1 1 0.99985
0.999868 1 1 0.999868
0.999859 1 1 0.999859
0.99988 1 1 0.99988
0.999933 1 1 0.999933
0.999894 1 1 0.999894
0.999989 1 1 0.999989
0.999923 1 1 0.999923
0.999843 1 1 0.999843
0.99983 1 1 0.99983
0.99982 1 1 0.99982
0.999833 1 1 0.999833
0.999934 1 1 0.999934
0.999899 1 1 0.999899
0.999864 1 1 0.999864
0.999864 1 1 0.999864
0.999859 1 1 0.999859
0.999854 1 1 0.999854
0.99988 1 1 0.99988
0.999886 1 1 0.999886
0.999902 1 1 0.999902
0.99988 1 1 0.99988
0.999889 1 1 0.999889
0.999987 1 1 0.999987
0.999924 1 1 0.999924
0.999833 1 1 0.999833
0.999815 1 1 0.999815
0.999842 1 1 0.999842
0.999873 1 1 0.999873
0.999904 1 1 0.999904
0.999898 1 1 0.999898
0.999876 1 1 0.999876
0.999841 1 1 0.999841
0.99985 1 1 0.99985
0.999985 1 1 0.999985
0.999936 1 1 0.999936
0.999886 1 1 0.999886
0.999885 1 1 0.999885
0.999862 1 1 0.999862
0.999867 1 1 0.999867
1 1 1 1
0.99999 1 1 0.99999
0.99986 1 1 0.99986
0.999938 1 1 0.999938
0.999938 1 1 0.999938
0.999897 1 1 0.999897
0.999877 1 1 0.999877
0.999853 1 1 0.999853
0.999897 1 1 0.999897
0.999866 1 1 0.999866
0.99988 1 1 0.99988
0.999991 1 1 0.999991
0.999939 1 1 0.999939
0.9999 1 1 0.9999
0.999897 1 1 0.999897
0.999879 1 1 0.999879
0.999858 1 1 0.999858
0.999864 1 1 0.999864
0.999869 1 1 0.999869
0.999865 1 1 0.999865
0.999845 1 1 0.999845
0.99994 1 1 0.99994
0.99989 1 1 0.99989
0.999873 1 1 0.999873
0.99987 1 1 0.99987
0.999865 1 1 0.999865
0.99989 1 1 0.99989
0.999849 1 1 0.999849
0.999865 1 1 0.999865
0.999845 1 1 0.999845
0.999816 1 1 0.999816
0.999993 1 1 0.999993
0.999938 1 1 0.999938
0.999892 1 1 0.999892
0.999938 1 1 0.999938
0.999947 1 1 0.999947
0.999901 1 1 0.999901
0.999873 1 1 0.999873
0.999897 1 1 0.999897
0.999949 1 1 0.999949
0.999995 1 1 0.999995
0.999995 1 1 0.999995
1 1 1 1
0.999994 1 1 0.999994
1 1 1 1
1 1 1 1
1 1 1 1
1 1 1 1
1 1 1 1
1 1 1 1
1 1 1 1
1 1 1 1
1 1 1 1
1 1 1 1
1 1 1 1
0.999861 1 1 0.999861
0.99985 1 1 0.99985
0.999859 1 1 0.999859
0.999841 1 1 0.999841
0.999856 1 1 0.999856
0.999864 1 1 0.999864
0.999853 1 1 0.999853
0.999853 1 1 0.999853
0.999844 1 1 0.999844
0.999832 1 1 0.999832
0.999864 1 1 0.999864
0.999865 1 1 0.999865
0.999859 1 1 0.999859
0.999848 1 1 0.999848
0.99984 1 1 0.99984
0.999889 1 1 0.999889
0.999843 1 1 0.999843
0.999831 1 1 0.999831
0.999818 1 1 0.999818
0.999834 1 1 0.999834
0.999934 1 1 0.999934
0.999902 1 1 0.999902
0.999864 1 1 0.999864
0.999863 1 1 0.999863
0.999862 1 1 0.999862
0.99988 1 1 0.99988
0.999853 1 1 0.999853
0.999891 1 1 0.999891
0.999902 1 1 0.999902
0.999878 1 1 0.999878
0.999889 1 1 0.999889
0.999982 1 1 0.999982
0.999925 1 1 0.999925
0.99983 1 1 0.99983
0.999817 1 1 0.999817
0.999843 1 1 0.999843
0.999904 1 1 0.999904
0.99988 1 1 0.99988
0.999841 1 1 0.999841
0.999872 1 1 0.999872
0.999855 1 1 0.999855
0.999897 1 1 0.999897
0.999985 1 1 0.999985
0.999885 1 1 0.999885
0.999869 1 1 0.999869
0.999864 1 1 0.999864
0.999888 1 1 0.999888
0.999932 1 1 0.999932
0.999826 1 1 0.999826
0.999815 1 1 0.999815
0.99986 1 1 0.99986
0.999896 1 1 0.999896
0.999886 1 1 0.999886
0.999874 1 1 0.999874
0.99985 1 1 0.99985
0.999825 1 1 0.999825
0.999988 1 1 0.999988
0.99994 1 1 0.99994
0.999893 1 1 0.999893
0.99985 1 1 0.99985
0.999868 1 1 0.999868
0.99985 1 1 0.99985
0.999991 1 1 0.999991
0.999939 1 1 0.999939
0.999858 1 1 0.999858
0.999897 1 1 0.999897
0.999902 1 1 0.999902
0.999876 1 1 0.999876
0.999863 1 1 0.999863
0.999871 1 1 0.999871
0.999863 1 1 0.999863
0.999842 1 1 0.999842
0.99994 1 1 0.99994
0.999892 1 1 0.999892
0.999876 1 1 0.999876
0.999873 1 1 0.999873
0.999866 1 1 0.999866
0.999892 1 1 0.999892
0.99985 1 1 0.99985
0.999874 1 1 0.999874
0.999843 1 1 0.999843
0.999813 1 1 0.999813
0.999889 1 1 0.999889
0.999858 1 1 0.999858
0.999853 1 1 0.999853
0.999852 1 1 0.999852
0.999897 1 1 0.999897
0.999894 1 1 0.999894
0.999819 1 1 0.999819
0.999801 1 1 0.999801
0.999941 1 1 0.999941
0.999895 1 1 0.999895
0.999868 1 1 0.999868
0.999947 1 1 0.999947
0.999895 1 1 0.999895
0.999949 1 1 0.999949
0.999869 1 1 0.999869
0.999899 1 1 0.999899
0.999849 1 1 0.999849
0.999866 1 1 0.999866
0.999898 1 1 0.999898
0.999949 1 1 0.999949
0.999995 1 1 0.999995
0.999995 1 1 0.999995
1 1 1 1
0.999995 1 1 0.999995
1 1 1 1
1 1 1 1
1 1 1 1
1 1 1 1
1 1 1 1
1 1 1 1
1 1 1 1
1 1 1 1
1 1 1 1
1 1 1 1
1 1 1 1
0.999865 1 1 0.999865
0.999843 1 1 0.999843
0.999866 1 1 0.999866
0.999828 1 1 0.999828
0.999853 1 1 0.999853
0.999853 1 1 0.999853
0.999855 1 1 0.999855
0.999848 1 1 0.999848
0.999843 1 1 0.999843
0.999887 1 1 0.999887
0.999854 1 1 0.999854
0.999848 1 1 0.999848
0.999869 1 1 0.999869
0.999827 1 1 0.999827
0.99982 1 1 0.99982
0.999845 1 1 0.999845
0.999904 1 1 0.999904
0.999883 1 1 0.999883
0.99984 1 1 0.99984
0.99987 1 1 0.99987
0.999896 1 1 0.999896
0.999861 1 1 0.999861
0.999885 1 1 0.999885
0.99987 1 1 0.99987
0.999866 1 1 0.999866
0.999985 1 1 0.999985
0.999889 1 1 0.999889
0.999928 1 1 0.999928
0.999831 1 1 0.999831
0.999814 1 1 0.999814
0.999857 1 1 0.999857
0.999886 1 1 0.999886
0.999853 1 1 0.999853
0.999827 1 1 0.999827
0.999899 1 1 0.999899
0.999873 1 1 0.999873
0.999992 1 1 0.999992
0.99994 1 1 0.99994
0.999868 1 1 0.999868
0.99985 1 1 0.99985
0.999852 1 1 0.999852
0.999891 1 1 0.999891
0.999839 1 1 0.999839
0.99982 1 1 0.99982
0.9999 1 1 0.9999
0.999907 1 1 0.999907
0.999864 1 1 0.999864
0.999827 1 1 0.999827
0.99983 1 1 0.99983
0.999998 1 1 0.999998
0.999959 1 1 0.999959
0.999941 1 1 0.999941
0.999888 1 1 0.999888
0.999852 1 1 0.999852
0.999831 1 1 0.999831
0.999855 1 1 0.999855
0.999835 1 1 0.999835
0.99994 1 1 0.99994
0.999894 1 1 0.999894
0.999894 1 1 0.999894
0.999875 1 1 0.999875
0.99988 1 1 0.99988
0.999867 1 1 0.999867
0.99985 1 1 0.99985
0.999882 1 1 0.999882
0.999841 1 1 0.999841
0.999809 1 1 0.999809
0.999889 1 1 0.999889
0.999862 1 1 0.999862
0.999855 1 1 0.999855
0.999854 1 1 0.999854
0.999897 1 1 0.999897
0.999892 1 1 0.999892
0.999822 1 1 0.999822
0.999801 1 1 0.999801
0.999864 1 1 0.999864
0.99988 1 1 0.99988
0.99984 1 1 0.99984
0.999829 1 1 0.999829
0.999916 1 1 0.999916
0.999813 1 1 0.999813
0.999826 1 1.00004 0.999783
0.999898 1 1 0.999898
0.999868 1 1 0.999868
0.999847 1 1 0.999847
0.999949 1 1 0.999949
0.999901 1 1 0.999901
0.999866 1 1 0.999866
0.999949 1 1 0.999949
0.999898 1 1 0.999898
0.999846 1 1 0.999846
0.99987 1 1 0.99987
0.999833 1 1 0.999833
0.999841 1 1 0.999841
0.99987 1 1 0.99987
0.9999 1 1 0.9999
0.999948 1 1 0.999948
0.999995 1 1 0.999995
0.999995 1 1 0.999995
1 1 1 1
0.999995 1 1 0.999995
1 1 1 1
1 1 1 1
1 1 1 1
1 1 1 1
1 1 1 1
0.999999 1 1 0.999999
1 1 1 1
1 1 1 1
1 1 1 1
1 1 1 1
1 1 1 1
1 1 1 1
0.999884 1 1 0.999884
0.999847 1 1 0.999847
0.999847 1 1 0.999847
0.999852 1 1 0.999852
0.999857 1 1 0.999857
0.999845 1 1 0.999845
0.999875 1 1 0.999875
0.999857 1 1 0.999857
0.999856 1 1 0.999856
0.999909 1 1 0.999909
0.999836 1 1 0.999836
0.999813 1 1 0.999813
0.999854 1 1 0.999854
0.999885 1 1 0.999885
0.999856 1 1 0.999856
0.99983 1 1 0.99983
0.999901 1 1 0.999901
0.999873 1 1 0.999873
0.999868 1 1 0.999868
0.999851 1 1 0.999851
0.999855 1 1 0.999855
0.999996 1 1 0.999996
0.99994 1 1 0.99994
0.999888 1 1 0.999888
0.999836 1 1 0.999836
0.999997 1 1 0.999997
0.999956 1 1 0.999956
0.999822 1 1 0.999822
0.999893 1 1 0.999893
0.999865 1 1 0.999865
0.999827 1 1 0.999827
0.999829 1 1 0.999829
0.999906 1 1 0.999906
0.999949 1 1 0.999949
0.999888 1 1 0.999888
0.999856 1 1 0.999856
0.999838 1 1 0.999838
0.999827 1 1 0.999827
0.999854 1 1 0.999854
0.999816 1 1 0.999816
0.999861 1 1 0.999861
0.999943 1 1 0.999943
0.999858 1 1 0.999858
0.999849 1 1 0.999849
0.999807 1 1 0.999807
0.999958 1 1 0.999958
0.999955 1 1 0.999955
0.999917 1 1 0.999917
0.999887 1 1 0.999887
0.999856 1 1 0.999856
0.999817 1 1 0.999817
0.999807 1 1 0.999807
0.999837 1 1 0.999837
0.999889 1 1 0.999889
0.999865 1 1 0.999865
0.999897 1 1 0.999897
0.999889 1 1 0.999889
0.999856 1 1 0.999856
0.999858 1 1 0.999858
0.999826 1 1 0.999826
0.9998 1 1 0.9998
0.999863 1 1 0.999863
0.999893 1 1 0.999893
0.99984 1 1 0.99984
0.999825 1 1 0.999825
0.999913 1 1 0.999913
0.999814 1 1 0.999814
0.999837 1 1.00006 0.999781
0.99984 1 1 0.99984
0.999915 1 1 0.999915
0.999824 1 1 0.999824
0.999902 1 1.00011 0.999791
0.999818 1 1 0.999818
1.00045 1 1.00069 0.99976
0.984569 1.00295 0.981895 0.99977
0.999868 1 1 0.999868
0.999847 1 1 0.999847
0.999832 1 1 0.999832
0.999949 1 1 0.999949
0.999898 1 1 0.999898
0.999874 1 1 0.999874
0.999844 1 1 0.999844
0.999947 1 1 0.999947
0.999898 1 1 0.999898
0.999832 1 1 0.999832
0.99987 1 1 0.99987
0.999845 1 1 0.999845
0.999822 1 1 0.999822
0.999845 1 1 0.999845
0.99987 1 1 0.99987
0.999892 1 1 0.999892
0.999939 1 1 0.999939
0.999904 1 1 0.999904
0.99994 1 1 0.99994
0.999995 1 1 0.999995
0.999995 1 1 0.999995
1 1 1 1
0.999995 1 1 0.999995
1 1 1 1
1 1 1 1
1 1 1 1
1 1 1 1
1 1 1 1
1 1 1 1
0.999999 1 1 0.999999
1 1 1 1
1 1 1 1
1 1 1 1
1 1 1 1
1 1 1 1
1 1 1 1
0.999881 1 1 0.999881
0.999843 1 1 0.999843
0.999861 1 1 0.999861
0.999857 1 1 0.999857
0.999857 1 1 0.999857
0.999921 1 1 0.999921
0.999862 1 1 0.999862
0.996158 1.00031 0.995896 0.999957
0.999686 1 0.999705 0.99998
0.999969 1 1 0.999969
0.999832 1 1 0.999832
0.999823 1 1 0.999823
0.999886 1 1 0.999886
0.999866 1 1 0.999866
0.999824 1 1 0.999824
0.99983 1 1 0.99983
0.999904 1 1 0.999904
0.999857 1 1 0.999857
0.999841 1 1 0.999841
0.999823 1 1 0.999823
0.999997 1 1 0.999997
0.999855 1 1 0.999855
0.999956 1 1 0.999956
0.999888 1 1 0.999888
0.999953 1 1 0.999953
0.999809 1 1 0.999809
0.999961 1 1 0.999961
0.999954 1 1 0.999954
0.999911 1 1 0.999911
0.999862 1 1 0.999862
0.999892 1 0.999959 0.999933
0.999849 1 1 0.999849
0.999807 1 1 0.999807
0.99986 1 1 0.99986
0.999891 1 1 0.999891
0.999855 1 1 0.999855
0.999837 1 1 0.999837
0.999812 1 1 0.999812
0.99982 1 1 0.99982
0.99984 1 1.00004 0.999795
0.997896 1 0.997961 0.999934
0.999894 1 1 0.999894
0.999813 1 1 0.999813
0.99983 1 1 0.99983
0.999912 1 1 0.999912
0.999896 1 1 0.999896
0.999877 1 1 0.999877
0.99985 1 1 0.99985
0.999827 1 1 0.999827
0.999794 1 1 0.999794
1.00108 1 1.00127 0.999802
0.999863 1 1 0.999863
0.999839 1 1 0.999839
0.999907 1 1 0.999907
0.99991 1 1 0.99991
0.999815 1 1 0.999815
0.999821 1 1 0.999821
0.999779 1 1 0.999779
0.999842 1 1 0.999842
0.999892 1 0.99997 0.999922
0.999823 1 1 0.999823
0.999812 1 1.00002 0.99979
0.999828 1 1 0.999828
1.00093 1 1.00117 0.999758
0.988859 1.00546 0.983696 0.999789
0.999825 1 1 0.999825
0.999794 1 1 0.999794
0.999808 1 1 0.999808
1.002 1 1.00224 0.999758
1.00058 1 1.00084 0.99974
0.965136 0.96585 1.00004 0.999221
0.988418 1.00202 0.986562 0.999864
0.984841 1.00805 0.977252 0.999717
0.973775 0.980095 0.993616 0.999935
0.978875 1.00241 0.976524 0.999993
0.999847 1 1 0.999847
0.999832 1 1 0.999832
0.999818 1 1 0.999818
0.999947 1 1 0.999947
0.999895 1 1 0.999895
0.99987 1 1 0.99987
0.999848 1 1 0.999848
0.999831 1 1 0.999831