# vtk DataFile Version 2.0
Wound Healing Simulation
ASCII
DATASET UNSTRUCTURED_GRID
POINTS 3012 float
69.9759 18.75 4
67.2507 60.3285 4
69.976 18.75 2
73.0099 25.446 4
71.1327 20.9142 4
68.6801 16.6661 4
67.8252 19.9261 3.98179
67.2507 60.3286 2
71.1327 54.0858 4
68.6801 58.3339 4
65.6939 62.2254 4
65.3116 59.0008 3.98059
74.6784 42.3946 4
73.7221 47.2057 4
69.9759 18.75 0
73.0099 25.446 2
68.6801 16.6661 2
71.1327 20.9142 2
67.8257 19.9292 2
74.6792 32.6053 4
73.7222 27.7943 4
72.1454 23.1494 4
70.6138 26.2209 3.98119
68.8853 21.958 3.98212
67.2507 14.6715 4
66.6366 17.9722 3.98084
65.7954 21.0263 3.97166
67.2507 60.3285 0
71.1327 54.0858 2
68.6801 58.3339 2
65.694 62.2255 2
65.3127 58.9972 2
72.1454 51.8506 4
69.9759 56.25 4
68.836 53.1129 3.98111
64.0165 64.0165 4
66.6103 57.1335 3.9813
63.885 60.7654 3.98177
63.4983 57.7688 3.97212
60.3285 67.2507 4
74.6792 42.3947 2
73.7222 47.2057 2
74.9194 39.9526 4
74.2788 44.8158 4
72.168 42.0854 3.98049
73.0099 49.554 4
71.249 46.5979 3.9803
73.0099 25.446 0
71.1327 20.9142 0
68.6801 16.6661 0
67.8252 19.9261 0.0182134
74.6792 32.6053 2
73.7222 27.7943 2
67.2508 14.6715 2
72.1455 23.1494 2
70.6138 26.2213 2
66.6374 17.976 2
68.8856 21.96 2
65.7948 21.027 2
74.9197 35.0474 4
74.2794 30.1841 4
72.1846 32.9432 3.98087
71.2779 28.4313 3.98068
69.8152 24.0595 3.98182
68.3452 26.9518 3.97032
66.7609 22.9339 3.97106
65.694 12.7746 4
65.3229 16.1041 3.98041
64.7117 19.1969 3.97245
63.8826 22.0388 3.96774
71.1327 54.0858 0
65.6939 62.2254 0
68.6801 58.3339 0
65.3116 59.0008 0.0194087
72.1455 51.8506 2
69.9759 56.25 2
68.8362 53.111 2
64.0165 64.0165 2
66.6111 57.13 2
63.8866 60.7623 2
63.4977 57.7687 2
62.2254 65.694 4
58.8944 65.414 3.99037
69.7686 50.9888 3.981
67.7833 55.1671 3.98119
66.6476 52.2082 3.96996
62.3357 62.4273 3.98559
64.6591 56.0299 3.97219
62.2003 59.4 3.97151
61.8178 56.675 3.96864
58.3339 68.6801 4
60.3285 67.2508 2
73.7221 47.2057 0
74.6784 42.3946 0
74.9197 39.9526 2
74.2794 44.8159 2
72.1675 42.0855 2
73.0099 49.554 2
71.2489 46.5978 2
75 37.5 4
72.4052 39.8021 3.98101
71.7823 44.3527 3.98056
69.8027 41.7891 3.97008
70.5748 48.8134 3.98055
68.9107 46.014 3.96972
74.6792 32.6053 0
73.7222 27.7943 0
67.2507 14.6715 0
72.1454 23.1494 0
70.6138 26.2209 0.0188077
68.8853 21.958 0.0178849
66.6366 17.9722 0.0191558
65.7954 21.0263 0.0283363
74.9197 35.0474 2
74.2794 30.1841 2
72.1841 32.9436 2
71.2778 28.4317 2
65.694 12.7745 2
65.3242 16.1081 2
69.8153 24.0606 2
68.3452 26.9523 2
64.7111 19.1975 2
66.7605 22.9346 2
63.8821 22.0391 2
72.4131 35.2241 3.9811
71.8037 30.6762 3.98093
69.8387 33.2684 3.97046
68.9646 29.0384 3.97023
67.6096 24.9125 3.97053
66.1903 27.6362 3.96748
64.0165 10.9835 4
64.7525 23.8326 3.96778
63.8894 14.3279 3.983
63.5105 17.451 3.972
62.9019 20.3253 3.9676
62.0734 22.9526 3.96705
60.6836 11.0983 3.98676
57.6115 11.4515 3.97834
72.1454 51.8506 0
69.9759 56.25 0
68.836 53.1129 0.0188887
64.0165 64.0165 0
63.885 60.7654 0.0182323
66.6103 57.1335 0.0186956
63.4983 57.7688 0.0278755
62.2255 65.694 2
58.8956 65.4134 2
69.7686 50.9879 2
67.7838 55.1642 2
66.6472 52.2075 2
62.3375 62.4251 2
64.6585 56.0296 2
62.1997 59.4004 2
61.8172 56.675 2
60.6684 63.9767 3.98795
57.0255 66.7347 3.99145
57.5574 63.6897 3.9811
67.5058 50.1758 3.96958
65.7001 54.1721 3.97084
64.5333 51.3819 3.96656
60.7717 60.9345 3.97623
62.8153 55.0633 3.96735
60.6521 58.1494 3.96567
60.3197 55.7751 3.96758
56.25 69.9759 4
58.3339 68.6801 2
60.3285 67.2507 0
58.9209 9.65652 3.98803
62.2254 9.30607 4
73.0099 49.554 0
74.2788 44.8158 0
71.249 46.5979 0.0196952
72.168 42.0854 0.0195071
74.9194 39.9526 0
75 37.5 2
72.4052 39.8023 2
71.7822 44.3525 2
69.8023 41.7888 2
70.5747 48.8132 2
68.9107 46.0134 2
72.4886 37.5119 3.98079
70.04 39.657 3.9702
69.429 43.9068 3.96998
67.5922 41.4961 3.96811
68.2643 48.1062 3.96954
66.7024 45.4373 3.96738
74.9197 35.0474 0
74.2794 30.1841 0
72.1846 32.9432 0.0191328
71.2779 28.4313 0.0193242
65.694 12.7746 0
65.3229 16.1041 0.0195914
69.8152 24.0595 0.0181753
68.3452 26.9518 0.0296767
66.7609 22.9339 0.028941
64.7117 19.1969 0.0275507
63.8826 22.0388 0.0322565
72.413 35.2242 2
71.8036 30.6767 2
69.8383 33.2688 2
68.9646 29.0389 2
64.0165 10.9835 2
63.8914 14.331 2
63.51 17.4517 2
67.6094 24.9132 2
66.1903 27.6365 2
62.9012 20.3256 2
64.7521 23.8329 2
62.0726 22.9529 2
60.6856 11.1005 2
57.6123 11.4503 2
70.0567 35.3918 3.97041
69.4657 31.1496 3.97026
67.652 33.5914 3.96808
66.7675 29.6241 3.96758
65.52 25.7012 3.96759
64.1085 28.2637 3.96947
62.3413 12.6555 3.98547
62.8319 24.6463 3.96794
62.1968 15.7897 3.97369
61.8063 18.6928 3.96704
61.2011 21.3522 3.96556
60.3766 23.7451 3.96859
59.2453 12.7832 3.9769
55.874 10.2365 3.98112
56.4038 13.1238 3.97478
69.7686 50.9888 0.0190034
62.2254 65.694 0
58.8944 65.414 0.00963208
67.7833 55.1671 0.0188067
66.6476 52.2082 0.030044
62.3357 62.4273 0.0144126
62.2003 59.4 0.0284904
64.6591 56.0299 0.0278142
61.8178 56.675 0.0313634
60.6699 63.9754 2
57.0263 66.7344 2
57.5575 63.6913 2
67.5055 50.1751 2
65.6995 54.1714 2
64.5329 51.3816 2
60.7717 60.9357 2
62.8148 55.0632 2
60.6517 58.1496 2
60.3193 55.775 2
55.0713 67.9316 3.99198
59.2182 62.363 3.97762
55.8045 64.9088 3.98479
56.3253 62.084 3.97584
65.3261 49.4051 3.96668
63.7014 53.2884 3.96684
62.4092 50.64 3.96687
59.3296 59.5498 3.97048
61.0676 54.2994 3.96611
59.2764 56.9957 3.96388
59.2306 55.1682 3.96577
48.1023 68.5777 3.98753
50.949 69.9312 3.99216
54.0858 71.1327 4
56.25 69.976 2
58.3339 68.6801 0
57.0584 8.33629 3.98936
60.3285 7.74928 4
58.9228 9.65784 2
62.2255 9.30602 2
70.5748 48.8134 0.0194457
71.7823 44.3527 0.0194409
68.9107 46.014 0.0302778
69.8027 41.7891 0.0299193
72.4052 39.8021 0.0189918
75 37.5 0
72.4882 37.5121 2
70.0399 39.6569 2
69.4288 43.9064 2
67.592 41.4959 2
68.2642 48.1056 2
66.7021 45.437 2
70.1281 37.5213 3.97046
67.8312 39.5115 3.96826
67.2163 43.4679 3.96774
65.5064 41.2044 3.97131
66.0618 47.4151 3.96707
64.6017 44.839 3.96975
72.4131 35.2241 0.0189027
71.8037 30.6762 0.0190683
69.8387 33.2684 0.0295428
68.9646 29.0384 0.0297749
64.0165 10.9835 0
63.8894 14.3279 0.0170044
63.5105 17.451 0.0279968
67.6096 24.9125 0.0294667
66.1903 27.6362 0.0325243
64.7525 23.8326 0.0322202
62.9019 20.3253 0.0324037
62.0734 22.9526 0.0329488
60.6836 11.0983 0.0132415
57.6115 11.4515 0.0216616
70.0567 35.392 2
69.4657 31.15 2
67.6519 33.5916 2
66.7676 29.6243 2
62.3432 12.6584 2
62.1966 15.7894 2
61.8056 18.693 2
65.5197 25.7015 2
64.1078 28.264 2
61.2003 21.3524 2
62.8314 24.6466 2
60.3766 23.7456 2
59.2459 12.7829 2
56.4043 13.1223 2
55.8746 10.2353 2
67.8677 35.5476 3.96826
67.2611 31.6233 3.96787
65.6592 33.9301 3.97131
64.6212 30.199 3.97002
63.5077 26.4229 3.96882
62.1789 28.7927 3.97314
60.7743 14.2276 3.97668
60.9872 25.355 3.9704
60.606 17.1385 3.96831
60.2058 19.8292 3.96429
59.6121 22.278 3.96594
58.9032 24.3452 3.9711
54.0373 9.13815 3.98285
57.9081 14.3414 3.97569
54.7857 12.0194 3.97586
55.3091 14.6621 3.97356
67.5058 50.1758 0.0304185
57.0255 66.7347 0.00855137
60.6684 63.9767 0.0120495
57.5574 63.6897 0.0188987
65.7001 54.1721 0.0291555
64.5333 51.3819 0.0334428
60.7717 60.9345 0.0237708
60.6521 58.1494 0.0343299
62.8153 55.0633 0.0326524
60.3197 55.7751 0.0324223
55.0718 67.9315 2
59.2183 62.3643 2
55.8044 64.9098 2
56.325 62.0858 2
65.3258 49.4048 2
63.7008 53.2882 2
62.4093 50.6398 2
59.3291 59.5514 2
61.0674 54.2992 2
59.2762 56.9955 2
59.2305 55.1679 2
53.0432 68.9994 3.99206
53.9669 66.012 3.98632
57.878 60.8632 3.97518
54.6833 63.204 3.98027
55.2086 60.6038 3.97527
63.1526 48.649 3.96798
61.7209 52.5642 3.96634
60.2004 49.9971 3.96878
58.009 58.2496 3.96822
59.3073 53.9307 3.96723
58.1021 55.7924 3.96435
50.109 67.8559 3.98732
47.463 66.5785 3.98422
46.0559 69.1568 3.98769
48.1023 68.5783 2
48.8031 70.7225 3.99226
50.9494 69.9313 2
51.8506 72.1454 4
54.0858 71.1327 2
56.25 69.9759 0
55.1031 7.1407 3.99068
58.3339 6.31992 4
57.0599 8.33695 2
60.3286 7.74926 2
58.9209 9.65652 0.0119669
62.2254 9.30607 0
68.2643 48.1062 0.030462
69.429 43.9068 0.0300225
66.7024 45.4373 0.0326173
67.5922 41.4961 0.0318858
70.04 39.657 0.0298014
72.4886 37.5119 0.0192106
70.1278 37.5213 2
67.8311 39.5114 2
67.2168 43.4676 2
65.5055 41.2042 2
66.0618 47.4148 2
64.6007 44.8386 2
67.9284 37.5216 3.96842
65.7428 39.3671 3.97169
65.1268 43.0179 3.97064
63.6565 40.9206 3.97524
63.916 46.7055 3.96886
62.71 44.2005 3.97361
70.0567 35.3918 0.0295932
69.4657 31.1496 0.0297365
67.652 33.5914 0.0319229
66.7675 29.6241 0.0324222
62.3413 12.6555 0.0145256
62.1968 15.7897 0.0263147
61.8063 18.6928 0.0329637
65.52 25.7012 0.0324147
64.1085 28.2637 0.0305323
62.8319 24.6463 0.0320638
61.2011 21.3522 0.0344438
60.3766 23.7451 0.0314062
59.2453 12.7832 0.0230998
56.4038 13.1238 0.0252159
55.874 10.2365 0.0188776
67.8676 35.5477 2
67.2613 31.6235 2
65.6587 33.9302 2
64.6206 30.1993 2
60.7742 14.2277 2
60.6058 17.1375 2
60.2054 19.8291 2
63.5071 26.4232 2
62.1777 28.7932 2
59.6142 22.2782 2
60.9869 25.3554 2
58.9023 24.346 2
57.9079 14.3406 2
55.3093 14.6618 2
54.0378 9.13686 2
54.7863 12.0175 2
65.8332 35.6678 3.9714
65.1412 32.1595 3.97064
64.2082 34.2539 3.97543
62.4937 30.6493 3.97387
61.58 27.0889 3.97151
60.7386 29.1599 3.97676
59.3073 15.6774 3.97314
59.2351 25.8219 3.97413
59.1093 18.3719 3.96626
58.7077 20.8739 3.9634
58.2097 23.1195 3.96644
57.8741 24.695 3.97292
52.1121 8.15531 3.98478
53.0576 11.0232 3.97846
56.6717 15.7565 3.97487
53.8071 13.6945 3.97541
54.3695 16.018 3.9751
55.0713 67.9316 0.00801922
65.3261 49.4051 0.0333244
55.8045 64.9088 0.0152102
59.2182 62.363 0.0223787
56.3253 62.084 0.0241568
63.7014 53.2884 0.03316
62.4092 50.64 0.0331302
59.3296 59.5498 0.0295184
59.2764 56.9957 0.036121
61.0676 54.2994 0.0338864
59.2306 55.1682 0.0342263
53.0437 68.9994 2
53.9668 66.0128 2
57.8774 60.8648 2
54.683 63.205 2
55.2084 60.6055 2
63.1523 48.6487 2
61.7218 52.5642 2
60.1999 49.9966 2
58.0086 58.2511 2
59.3088 53.9305 2
58.1013 55.7918 2
52.0702 66.9988 3.98704
52.9534 64.2161 3.98277
56.6431 59.4783 3.97438
53.6794 61.6162 3.97713
[...]
POINT_DATA 3012
SCALARS Jp_lamdaP float 4
LOOKUP_TABLE default
0.999893 1 1 0.999893
1 1 1 1
0.999896 1 1 0.999896
0.999855 1 1 0.999855
0.999891 1 1 0.999891
0.999891 1 1 0.999891
0.999438 1 1 0.999438
1 1 1 1
1 1 1 1
1 1 1 1
0.999962 1 1 0.999962
0.999606 1 1 0.999606
0.999815 1 1 0.999815
0.999846 1 1 0.999846
0.999896 1 1 0.999896
0.999867 1 1 0.999867
0.999895 1 1 0.999895
0.999898 1 1 0.999898
0.999441 1 1 0.999441
1 1 1 1
0.999837 1 1 0.999837
0.999876 1 1 0.999876
0.999312 1 1 0.999312
0.999406 1 1 0.999406
0.999914 1 1 0.999914
0.999475 1 1 0.999475
0.998713 1 1 0.998713
1 1 1 1
0.999935 1 1 0.999935
0.999949 1 1 0.999949
1 1 1 1
0.999614 1 1 0.999614
0.999866 1 1 0.999866
0.999888 1 1 0.999888
0.999509 1 1 0.999509
1 1 1 1
0.999599 1 1 0.999599
0.999698 1 1 0.999698
0.998779 1 1 0.998779
1 1 1 1
1 1 1 1
0.999921 1 1 0.999921
1 1 1 1
0.999836 1 1 0.999836
0.999244 1 1 0.999244
1 1 1 1
0.99942 1 1 0.99942
0.999878 1 1 0.999878
0.999902 1 1 0.999902
0.999897 1 1 0.999897
0.999446 1 1 0.999446
0.999906 1 1 0.999906
0.99985 1 1 0.99985
0.999922 1 1 0.999922
0.999886 1 1 0.999886
0.999313 1 1 0.999313
0.99948 1 1 0.99948
0.999409 1 1 0.999409
0.998698 1 1 0.998698
1 1 1 1
0.999823 1 1 0.999823
0.999385 1 1 0.999385
0.999278 1 1 0.999278
0.999359 1 1 0.999359
0.998507 1.00009 1 0.998419
0.998555 1 1 0.998555
0.99996 1 1 0.99996
0.99959 1 1 0.99959
0.99882 1 1 0.99882
1.00073 1.00269 1 0.998041
1 1 1 1
1 1 1 1
1 1 1 1
0.999622 1 1 0.999622
1 1 1 1
1 1 1 1
0.999449 1 1 0.999449
0.999994 1 1 0.999994
0.999555 1 1 0.999555
0.999736 1 1 0.999736
0.998777 1 1 0.998777
1 1 1 1
0.999974 1 1 0.999974
0.999393 1 1 0.999393
0.999486 1 1 0.999486
0.998519 1.00015 1 0.998369
0.999843 1 1 0.999843
0.998677 1 1 0.998677
0.99891 1 1 0.99891
0.998288 1 1 0.998288
1 1 1 1
1 1 1 1
1 1 1 1
1 1 1 1
1 1 1 1
0.999914 1 1 0.999914
0.999311 1 1 0.999311
0.999926 1 1 0.999926
0.999385 1 1 0.999385
1 1 1 1
0.999225 1 1 0.999225
0.99939 1 1 0.99939
0.998429 1.00037 1 0.99806
0.999453 1 1 0.999453
0.999011 1.00086 1 0.998155
0.999831 1 1 0.999831
0.999861 1 1 0.999861
0.99993 1 1 0.99993
0.999895 1 1 0.999895
0.999315 1 1 0.999315
0.999413 1 1 0.999413
0.999485 1 1 0.999485
0.998684 1 1 0.998684
1 1 1 1
0.999836 1 1 0.999836
0.99925 1 1 0.99925
0.999278 1 1 0.999278
0.99998 1 1 0.99998
0.999637 1 1 0.999637
0.999362 1 1 0.999362
0.998485 1.0001 1 0.998381
0.998801 1 1 0.998801
0.998581 1 1 0.998581
1.00107 1.00303 1 0.998045
0.999246 1 1 0.999246
0.999253 1 1 0.999253
0.99832 1.00011 1 0.998206
0.998494 1.00019 1 0.998306
0.998449 1.00001 1 0.998438
1.00525 1.00745 1 0.997818
1 1 1 1
1.00196 1.00401 1 0.997967
0.999795 1 1 0.999795
0.998875 1 1 0.998875
0.999997 1.00189 1 0.998115
1.00795 1.01017 1 0.997799
0.999918 1 1 0.999918
0.999332 1 1 0.999332
1 1 1 1
1 1 1 1
0.999455 1 1 0.999455
1 1 1 1
0.999743 1 1 0.999743
0.99956 1 1 0.99956
0.998774 1 1 0.998774
1 1 1 1
0.999982 1 1 0.999982
0.999439 1 1 0.999439
0.999529 1 1 0.999529
0.998468 1.0001 1 0.998371
0.999861 1 1 0.999861
0.99868 1 1 0.99868
0.998909 1 1 0.998909
0.998324 1.00005 1 0.998273
0.999924 1 1 0.999924
0.999997 1 1 0.999997
0.99949 1 1 0.99949
0.998701 1.00044 1 0.998257
0.998527 1 1 0.998527
1.00391 1.00608 1 0.99784
0.999097 1 1 0.999097
0.999255 1.00108 1 0.998174
0.998953 1 1.00057 0.998383
0.999001 1.00088 1 0.99812
1 1 1 1
1 1 1 1
1 1 1 1
0.999953 1 1 0.999953
1 1 1 1
1 1 1 1
1 1 1 1
0.999347 1 1 0.999347
0.999268 1 1 0.999268
1 1 1 1
1 1 1 1
0.999227 1 1 0.999227
0.999355 1 1 0.999355
0.998551 1.00049 1 0.99806
0.999375 1 1 0.999375
0.998966 1.00081 1 0.998155
0.999217 1 1 0.999217
0.998122 1.00012 1 0.998007
0.998818 1.0007 1 0.998117
1.00857 1.01099 1 0.997603
0.998892 1.0007 1 0.998193
1.00814 1.01047 1 0.997688
1 1 1 1
0.999849 1 1 0.999849
0.999105 1 1 0.999105
0.999278 1 1 0.999278
1 1 1 1
0.999684 1 1 0.999684
0.999365 1 1 0.999365
0.998465 1.00012 1 0.998343
0.998608 1 1 0.998608
0.998782 1 1 0.998782
1.00143 1.00339 1 0.998048
0.999243 1 1 0.999243
0.999252 1 1 0.999252
0.998217 1.00009 1 0.998124
0.998529 1.0002 1 0.998333
1 1 1 1
0.999785 1 1 0.999785
0.998917 1 1 0.998917
0.998452 1.00001 1 0.998438
1.00523 1.00747 1 0.997779
1.00008 1.00198 1 0.998105
1.00237 1.00439 1 0.997994
1.00756 1.00977 1 0.997804
0.999909 1 1 0.999909
0.999358 1 1.00003 0.999333
0.998078 1.00005 1 0.998027
0.998464 1.0002 1 0.998261
1.00663 1.00895 1 0.9977
1.00578 1.0081 1 0.997697
1.0032 1.00529 1 0.997913
1.0154 1.01777 1 0.997672
0.999867 1 1 0.999867
1.00972 1.01197 1 0.997769
0.999022 1 1 0.999022
0.998722 1.00047 1 0.998256
1.00623 1.00839 1 0.997856
1.01239 1.01464 1 0.99778
0.999207 1 1 0.999207
0.999493 1 1 0.999493
0.999313 1 1.00048 0.998832
0.99941 1 1 0.99941
1 1 1 1
0.999991 1 1 0.999991
0.999511 1 1 0.999511
0.998419 1.00005 1 0.998374
0.999873 1 1 0.999873
0.998909 1 1 0.998909
0.998683 1 1 0.998683
0.998368 1.00011 1 0.998258
0.99994 1 1 0.99994
0.999998 1 1 0.999998
0.999493 1 1 0.999493
0.998615 1.00036 1 0.998258
0.998532 1 1 0.998532
1.00329 1.00546 1 0.997838
0.999099 1 1 0.999099
0.998942 1.00076 1 0.998184
0.998906 1.00006 1.00047 0.998379
0.999088 1.00098 1 0.998107
1 1 1 1
0.999286 1 1 0.999286
0.999687 1 1 0.999687
0.99923 1 1.00024 0.998992
1.00579 1.00806 1 0.997747
1.00169 1.00368 1 0.998012
1.01132 1.01372 1 0.997634
0.999033 1 1.00044 0.998596
1.00194 1.00394 1 0.997999
1.00038 1.00072 1.00158 0.998084
1.00306 1.0051 1 0.997978
0.999896 1 1 0.999896
1 1 1 1
1 1 1 1
1 1 1 1
1 1 1 1
0.999978 1 1 0.999978
1 1 1 1
0.999944 1 1 0.999944
1 1 1 1
0.999376 1 1 0.999376
0.999312 1 1 0.999312
0.998966 1.00081 1 0.998155
0.998673 1.00061 1 0.99806
0.999229 1 1 0.999229
1 1 1 1
0.999216 1 1 0.999216
0.998194 1.00019 1 0.998007
0.998896 1.00078 1 0.998117
1.00847 1.0109 1 0.997602
0.998841 1.00065 1 0.998192
1.00816 1.01049 1 0.997687
0.998022 1.00002 1 0.997998
1.00797 1.01044 1 0.997554
1.0087 1.01107 1 0.997652
1.02191 1.02439 1 0.997582
1.0074 1.00971 1 0.997711
1.01993 1.02237 1 0.997622
0.99924 1 1 0.99924
0.999251 1 1 0.999251
0.998118 1.00008 1 0.998042
0.99856 1.0002 1 0.99836
1 1 1 1
0.999775 1 1 0.999775
0.998959 1 1 0.998959
0.998453 1.00002 1 0.998438
1.00521 1.00749 1 0.997741
1.00277 1.00476 1 0.998021
1.00016 1.00207 1 0.998095
1.00722 1.00943 1 0.99781
0.9999 1 1 0.9999
0.999379 1 1.00005 0.999333
0.998043 1.00004 1 0.998003
0.998442 1.00018 1 0.998259
1.00685 1.00918 1 0.997693
1.00597 1.00826 1 0.997735
0.999858 1 1 0.999858
0.999019 1 1 0.999019
0.998896 1.00061 1 0.998289
1.00345 1.00555 1 0.997912
1.01573 1.0181 1 0.997676
1.00564 1.00784 1 0.997823
1.00968 1.01194 1 0.997771
1.01268 1.01493 1 0.997779
0.99921 1 1 0.99921
0.999376 1 1.00054 0.998833
0.999512 1 1.00002 0.99949
1.00717 1.00955 1 0.997641
1.00694 1.00924 1 0.997723
1.01965 1.02212 1 0.997577
1.01776 1.02019 1 0.997613
1.01198 1.01428 1 0.997732
1.01941 1.02168 1 0.997777
0.999132 1 1 0.999132
1.01451 1.01676 1 0.997792
0.998553 1 1 0.998553
0.999969 1.00209 1 0.997885
1.00974 1.01209 1 0.997684
1.01367 1.0158 1 0.9979
0.999626 1 1 0.999626
0.998813 1 1 0.998813
0.999596 1 1.00069 0.99891
0.999185 1 1.00052 0.99867
0.998528 1.00027 1 0.998258
1 1 1 1
0.999955 1 1 0.999955
0.999495 1 1 0.999495
0.998537 1 1 0.998537
1.00265 1.00482 1 0.997836
0.999102 1 1 0.999102
0.998807 1.0001 1.00033 0.998375
0.998563 1.00037 1 0.998195
0.999176 1.00108 1 0.998094
1 1 1 1
0.999286 1 1 0.999286
0.999693 1 1 0.999693
0.999182 1 1.00019 0.998989
1.00542 1.00769 1 0.997744
1.00085 1.00284 1 0.998014
1.01143 1.01383 1 0.997633
0.99905 1 1.00045 0.9986
1.00144 1.00343 1 0.998014
1.0007 1.0009 1.00173 0.998072
1.00282 1.00478 1 0.998047
1 1 1 1
0.999805 1 1 0.999805
0.998812 1 1 0.998812
0.999462 1 1.00027 0.99919
0.99945 1 1.00072 0.998727
1.01454 1.01699 1 0.997594
1.00664 1.00886 1 0.997801
1.01307 1.01548 1 0.997626
1.00024 1 1.00199 0.998249
1.00406 1.00615 1 0.997921
1.00247 1.00381 1.00086 0.997808
0.999882 1 1 0.999882
0.999548 1 1 0.999548
0.999906 1 1 0.999906
0.999899 1 1 0.999899
1 1 1 1
1 1 1 1
1 1 1 1
1 1 1 1
1 1 1 1
0.999994 1 1 0.999994
1 1 1 1
0.999971 1 1 0.999971
1 1 1 1
0.999935 1 1 0.999935
1 1 1 1
0.998775 1.00058 1 0.998192
0.998933 1.00082 1 0.998116
1.00809 1.01043 1 0.997686
1.00835 1.01078 1 0.997601
0.998277 1.00027 1 0.998007
0.999215 1 1 0.999215
0.998039 1.00004 1 0.997998
1.008 1.01047 1 0.997554
1.00847 1.01084 1 0.997652
1.02212 1.02459 1 0.997589
1.00714 1.00945 1 0.997709
1.01942 1.02185 1 0.997621
1.00763 1.01011 1 0.997543
1.022 1.0245 1 0.997559
1.02165 1.0241 1 0.997605
1.02697 1.02934 1 0.997697
1.01679 1.01922 1 0.997614
1.0215 1.02375 1 0.997802
0.998008 1.00003 1 0.997979
0.998424 1.00017 1 0.998256
1.00704 1.00937 1 0.997685
1.00616 1.00841 1 0.997773
0.999848 1 1 0.999848
0.999016 1 1 0.999016
0.99903 1.00071 1 0.998321
1.00372 1.00582 1 0.997911
1.01606 1.01842 1 0.99768
1.00967 1.01192 1 0.997774
1.00498 1.0072 1 0.997789
1.01296 1.01521 1 0.997779
0.999213 1 1 0.999213
0.999416 1 1.00058 0.998834
0.999537 1 1.00005 0.999487
1.00731 1.00973 1 0.997606
1.00695 1.00925 1 0.997722
1.0194 1.02187 1 0.997582
1.0181 1.02053 1 0.997618
0.999131 1 1 0.999131
0.998614 1.00007 1 0.998547
1.00008 1.00212 1.00003 0.997934
1.01215 1.01445 1 0.997735
1.01869 1.02093 1 0.997806
1.00986 1.01223 1 0.997655
1.01453 1.01677 1 0.997795
1.01306 1.01517 1 0.99792
0.998816 1 1 0.998816
0.9992 1 1.00055 0.998652
0.999621 1 1 0.999621
0.999624 1 1.00069 0.998933
1.02011 1.02263 1 0.997533
1.02008 1.02252 1 0.997611
1.02424 1.02668 1 0.997626
1.02108 1.02336 1 0.997773
1.01684 1.01907 1 0.997817
1.01883 1.02094 1 0.99793
0.998746 1 1 0.998746
1.01389 1.01592 1 0.998002
0.998235 1.00002 1 0.99822
1.00414 1.00632 1.00018 0.997652
1.01207 1.01449 1 0.99761
1.01257 1.01465 1 0.997949
0.999709 1 1 0.999709
0.999191 1 1.00012 0.999069
0.998651 1 1 0.998651
0.999951 1 1.00125 0.9987
0.99893 1 1.00031 0.998618
1 1 1 1
1.00499 1.00727 1 0.997741
0.999699 1 1 0.999699
0.999286 1 1 0.999286
0.999116 1 1.00013 0.998985
1.0001 1.00209 1 0.998016
1.01158 1.01398 1 0.997631
0.99911 1 1.00051 0.998604
1.00111 1.00112 1.00193 0.998061
1.00112 1.00309 1 0.998028
1.00267 1.00456 1 0.998115
1 1 1 1
0.999811 1 1 0.999811
0.998813 1 1 0.998813
0.999375 1 1.00018 0.99919
0.999681 1 1.00098 0.998706
1.01478 1.01723 1 0.997589
1.00658 1.00879 1 0.997801
1.01305 1.01547 1 0.997618
1.00038 1 1.00213 0.998253
1.00564 1.00772 1 0.997936
1.00216 1.00337 1.00096 0.997828
0.999857 1 1 0.999857
0.999362 1 1 0.999362
0.998986 1 1.00048 0.99851
0.999855 1 1.00097 0.998884
0.999537 1 1.00096 0.998581
1.01596 1.01836 1 0.997644
1.0087 1.01097 1 0.99775
1.01228 1.01453 1 0.997781
1.00179 1 1.00379 0.998009
1.00341 1.00574 1 0.997682
0.999885 1 1 0.999885
0.999483 1 1 0.999483
0.999528 1 1 0.999528
0.999334 1 1 0.999334
0.999556 1 1 0.999556
0.999909 1 1 0.999909
0.999907 1 1 0.999907
1 1 1 1
0.999901 1 1 0.999901
1 1 1 1
1 1 1 1
1 1 1 1
1 1 1 1
1 1 1 1
1 1 1 1
0.99999 1 1 0.99999
1 1 1 1
1 1 1 1
0.999965 1 1 0.999965
1 1 1 1
1.00694 1.00925 1 0.997707
1.00833 1.0107 1 0.997651
1.01894 1.02137 1 0.997621
1.02235 1.02481 1 0.997596
1.00804 1.01051 1 0.997555
0.998053 1.00006 1 0.997997
1.00764 1.01012 1 0.997544
1.02192 1.02442 1 0.997552
1.02152 1.02397 1 0.997605
1.02622 1.02873 0.999837 0.997719
1.01713 1.01957 1 0.99761
1.02179 1.02403 1 0.997816
1.02096 1.02349 1 0.997527
1.02538 1.02805 0.999744 0.997653
1.02446 1.02673 1 0.997786
1.02501 1.02797 0.999301 0.997822
1.01936 1.02167 1 0.997743
1.02252 1.02467 0.999942 0.997966
1.00748 1.00994 1 0.997572
1.00696 1.00926 1 0.99772
1.01919 1.02166 1 0.997588
1.01846 1.02089 1 0.997622
0.999131 1 1 0.999131
0.998723 1.00018 1 0.99854
1.00039 1.00223 1.00018 0.997984
1.01232 1.01462 1 0.997739
1.01795 1.02016 1 0.997834
1.01452 1.01675 1 0.997798
1.00998 1.01239 1 0.997625
1.0124 1.01449 1 0.997941
0.998818 1 1 0.998818
0.999177 1 1.00054 0.998635
0.999617 1 1 0.999617
0.999534 1 1.00058 0.998955
1.02011 1.02263 1 0.997534
1.0198 1.02225 1 0.9976
1.02418 1.0266 1 0.997641
1.0205 1.02279 1 0.997761
0.998741 1 1 0.998741
0.998449 1.00016 1.00003 0.998263
1.00437 1.00635 1.00039 0.997645
1.01658 1.01883 1 0.997793
1.01895 1.02101 1 0.997975
1.01168 1.01411 1 0.997598
1.0138 1.01583 1 0.998004
1.01361 1.01566 1 0.997988
0.99865 1 1 0.99865
0.998751 1 1.00013 0.998619
1.00033 1 1.00164 0.998695
0.999678 1 1 0.999678
0.999124 1 1.00003 0.99909
1.025 1.02748 0.999957 0.997629
1.02441 1.02678 1 0.997689
1.02002 1.02235 0.999775 0.997943
1.0164 1.01843 1 0.99801
0.998546 1 1 0.998546
1.01591 1.0178 1 0.998138
0.998353 1.00005 1.00029 0.998014
1.00734 1.00944 1.00051 0.997417
1.01192 1.01439 1 0.997573
0.999724 1 1 0.999724
0.999266 1 1 0.999266
0.999406 1 1.00054 0.998862
0.998612 1 1 0.998612
1.00103 1 1.0025 0.998534
0.998561 1 1 0.998561
1 1 1 1
0.999817 1 1 0.999817
1.01508 1.01754 1 0.997585
0.999305 1 1.00011 0.999191
0.998814 1 1 0.998814
1.00003 1 1.00135 0.998684
1.0063 1.00852 1 0.9978
1.0129 1.01532 1 0.997609
1.00054 1 1.00229 0.998257
1.00146 1.00284 1.00077 0.997848
1.00699 1.00906 1 0.99795
0.999861 1 1 0.999861
0.999365 1 1 0.999365
0.99893 1 1.00041 0.998517
1.00012 1 1.00124 0.998882
0.999776 1 1.00121 0.99857
1.01608 1.01848 1 0.997639
1.00919 1.01148 1 0.997741
1.01215 1.01438 1 0.997804
1.00122 1 1.00324 0.997985
1.00284 1.00514 1.00006 0.997651
0.999465 1 1 0.999465
0.999374 1 1.00036 0.999018
1.00033 1 1.002 0.998342
1.00063 1 1.00201 0.998621
0.999459 1 1.001 0.998465
1.01817 1.0202 1 0.998003
1.0084 1.01076 1 0.997666
1.01013 1.01233 1 0.997829
1.0032 1.00104 1.00433 0.997828
1.00032 1.00288 1 0.997446
0.999888 1 1 0.999888
0.9995 1 1 0.9995
0.999244 1 1 0.999244
0.999509 1 1 0.999509
0.999556 1 1 0.999556
0.999305 1 1 0.999305
0.999164 1 1 0.999164
0.999285 1 1 0.999285
0.99956 1 1 0.99956
0.999906 1 1 0.999906
0.999909 1 1 0.999909
1 1 1 1
0.999908 1 1 0.999908
1 1 1 1
1 1 1 1
1 1 1 1
1 1 1 1
1 1 1 1
1 1 1 1
0.999999 1 1 0.999999
1 1 1 1
0.999986 1 1 0.999986
1 1 1 1
1 1 1 1
1.01742 1.01986 1 0.997605
1.02136 1.02381 1 0.997605
1.02208 1.0243 1 0.99783
1.02545 1.02815 0.999627 0.997741
1.02181 1.02433 1 0.997545
1.00763 1.01011 1 0.997544
1.02116 1.02371 1 0.997515
1.02569 1.02826 0.999851 0.997645
1.0243 1.02659 1 0.997766
1.02459 1.02768 0.999155 0.997835
1.01877 1.02108 1 0.997743
1.02205 1.02415 0.99995 0.998
1.02464 1.02709 1 0.997614
1.0255 1.0293 0.998502 0.997808
1.02433 1.02702 0.99944 0.997942
1.0204 1.02238 1 0.998065
1.02007 1.02259 1 0.997534
1.01951 1.02197 1 0.997589
1.0241 1.0265 1 0.997656
1.01996 1.02226 1 0.997748
0.998737 1 1 0.998737
0.998441 1.00013 1 0.998307
1.00456 1.00636 1.00058 0.997638
1.01627 1.01855 1 0.997769
1.01907 1.02109 1 0.998021
1.0138 1.01582 1 0.998007
1.01134 1.01379 1 0.997587
1.01457 1.01657 1 0.998027
0.998649 1 1 0.998649
0.99862 1 1 0.99862
1.00101 1 1.00232 0.998689
0.999647 1 1 0.999647
0.99911 1 1 0.99911
1.02485 1.0273 0.999982 0.997632
1.02461 1.02698 1 0.997693
1.0199 1.02226 0.999756 0.997935
0.99854 1 1 0.99854
0.99888 1.00057 1.00026 0.998054
1.00693 1.00878 1.00076 0.997407
1.01688 1.01892 1 0.998
1.01165 1.01405 1 0.997636
1.01491 1.01682 1 0.998122
0.999733 1 1 0.999733
0.998607 1 1 0.998607
0.998612 1 1 0.998612
1.00089 1 1.00237 0.998522
0.999343 1 1.00047 0.998872
0.999242 1 1 0.999242
1.02537 1.02808 0.999656 0.997703
1.02405 1.02835 0.997966 0.997852
1.01834 1.02136 0.99901 0.998031
1.02114 1.02323 0.999772 0.998181
0.998418 1 1 0.998418
1.01298 1.01515 1 0.997861
1.00035 1.00109 1.00165 0.997618
1.00511 1.00681 1.00104 0.997276
0.999808 1 1 0.999808
0.99938 1 1 0.99938
0.999006 1 1 0.999006
1.00119 1 1.00259 0.998604
0.998529 1 1 0.998529
0.999458 1 1.00102 0.998436
0.999865 1 1 0.999865
0.999367 1 1 0.999367
1.0163 1.01871 1 0.997634
1.00014 1 1.00126 0.99888
0.998792 1 1.00027 0.998523
0.999944 1 1.00139 0.99856
1.0099 1.01219 1 0.997733
1.01224 1.01445 1 0.997827
1.00069 1 1.00273 0.997961
1.0024 1.00452 1.00027 0.997621
0.999467 1 1 0.999467
0.999166 1 1.00014 0.999027
1.00034 1 1.00198 0.99836
1.00091 1 1.00229 0.998625
0.998991 1 1.00048 0.998516
1.01819 1.0202 1 0.998029
1.00798 1.01034 1 0.997668
1.01118 1.01331 1 0.997903
1.00304 1.00067 1.00458 0.9978
1.00102 1.0036 1.00003 0.997404
0.999181 1 1 0.999181
0.99947 1 1.00075 0.998724
1.00198 1 1.00378 0.998201
0.999827 1 1.00147 0.998362
1.02129 1.02665 0.996565 0.998209
1.01517 1.01722 0.999872 0.998114
1.00543 1.00797 1 0.997481
1.00295 1.00125 1.00426 0.997454
0.999516 1 1 0.999516
0.999257 1 1 0.999257
0.999111 1 1 0.999111
0.999556 1 1 0.999556
0.999276 1 1 0.999276
0.999559 1 1 0.999559
0.999145 1 1 0.999145
0.999296 1 1 0.999296
0.99904 1 1 0.99904
0.999125 1 1 0.999125
0.999276 1 1 0.999276
0.999549 1 1 0.999549
0.9999 1 1 0.9999
0.999905 1 1 0.999905
1 1 1 1
0.999909 1 1 0.999909
1 1 1 1
1 1 1 1
1 1 1 1
1 1 1 1
1 1 1 1
1 1 1 1
1 1 1 1
1 1 1 1
0.999997 1 1 0.999997
1 1 1 1
1 1 1 1
1.01817 1.02047 1 0.997743
1.02411 1.02643 1 0.997746
1.02158 1.02363 0.999959 0.998035
1.02418 1.02735 0.999065 0.997848
1.02602 1.02845 1 0.997637
1.0214 1.02396 1 0.997503
1.02462 1.02707 0.99999 0.99762
1.02456 1.02818 0.99868 0.997799
1.02419 1.02704 0.999283 0.997942
1.02179 1.02377 1 0.998066
1.02523 1.02856 0.999006 0.99775
1.02596 1.03168 0.996472 0.997978
1.02572 1.02909 0.998641 0.998083
1.0247 1.02713 1 0.997636
1.02479 1.02715 1 0.997697
1.01975 1.02213 0.999748 0.997927
0.998534 1 1 0.998534
0.999466 1.0012 1.00018 0.998094
1.00632 1.0081 1.00085 0.997396
1.01732 1.01937 1 0.997989
1.01406 1.01598 1 0.998106
1.01169 1.01403 1 0.9977
0.998602 1 1 0.998602
0.998664 1 1 0.998664
1.0006 1 1.00209 0.998509
0.999742 1 1 0.999742
0.999152 1 1.00027 0.998881
0.999217 1 1 0.999217
1.02592 1.02858 0.999696 0.997709
1.02475 1.02851 0.998489 0.997859
1.01847 1.0213 0.999199 0.998022
0.998508 1.0001 1 0.998407
1.00046 1.00137 1.0014 0.997701
1.00457 1.00638 1.0009 0.997306
1.02096 1.02307 0.999745 0.998192
1.01361 1.01579 1 0.99785
0.999842 1 1 0.999842
0.99938 1 1 0.99938
0.998545 1 1 0.998545
0.999985 1 1.00149 0.998495
1.00113 1 1.00252 0.998617
0.998985 1 1 0.998985
1.02674 1.03151 0.997476 0.997894
1.01842 1.02592 0.994689 0.997991
1.01937 1.02325 0.997984 0.998218
1.01781 1.01974 0.999888 0.998221
0.999104 1.00001 1.00088 0.998216
1.00437 1.00561 1.0014 0.997373
1.00222 1.00216 1.00264 0.997427
0.99992 1 1 0.99992
0.999596 1 1 0.999596
0.999426 1 1 0.999426
0.999073 1 1 0.999073
0.999383 1 1.00063 0.998758
1.00046 1 1.00197 0.998488
0.998568 1 1 0.998568
1.00906 1 1.01046 0.998616
0.999469 1 1 0.999469
0.999096 1 1.00006 0.999037
1.0181 1.02008 1 0.998056
1.0014 1 1.00278 0.998628
1.00053 1 1.00215 0.998377
0.998602 1 1.00004 0.998566
1.00737 1.00973 1 0.99767
1.01219 1.01424 1 0.997978
1.00298 1.0004 1.00482 0.997772
1.00173 1.00438 1 0.997363
0.999166 1 1 0.999166
0.99977 1 1.00104 0.998735
1.00237 1 1.00415 0.998223
0.999625 1 1.00124 0.998387
1.02241 1.0275 0.99683 0.998218
1.01468 1.01668 0.999949 0.998083
1.0063 1.00881 1 0.99752
1.0027 1.00152 1.00377 0.997417
0.998992 1 1 0.998992
1.02046 1.02781 0.994637 0.998206
1.00052 1 1.00202 0.998502
1.00066 1 1.00268 0.997986
1.01984 1.02305 0.998553 0.998308
1.00632 1.00874 1 0.997596
1.0042 1.00368 1.00323 0.997288
0.999269 1 1 0.999269
0.999108 1 1 0.999108
0.998989 1 1 0.998989
0.999559 1 1 0.999559
0.999308 1 1 0.999308
0.999127 1 1 0.999127
0.999548 1 1 0.999548
0.999278 1 1 0.999278
0.999023 1 1 0.999023
0.999146 1 1 0.999146
0.998944 1 1 0.998944
0.999006 1 1 0.999006
0.999129 1 1 0.999129
0.999269 1 1 0.999269
0.999527 1 1 0.999527
0.999893 1 1 0.999893
0.999899 1 1 0.999899
1 1 1 1
0.999904 1 1 0.999904
1 1 1 1
1 1 1 1
1 1 1 1
1 1 1 1
1 1 1 1
0.999945 1 1 0.999945
1 1 1 1
1 1 1 1
1 1 1 1
1 1 1 1
1 1 1 1
1 1 1 1
1.02319 1.02518 1 0.998066
1.02409 1.02708 0.999142 0.997943
1.02363 1.0271 0.998822 0.99779
1.02462 1.02707 0.999987 0.997627
1.0251 1.02845 0.99897 0.997767
1.02642 1.03191 0.996705 0.997967
1.02543 1.02907 0.998361 0.998096
1.02589 1.03271 0.995435 0.99795
1.02879 1.0352 0.995699 0.998097
1.01345 1.02532 0.9901 0.998303
1.0265 1.02911 0.999743 0.997715