# vtk DataFile Version 2.0
Wound Healing Simulation
ASCII
DATASET UNSTRUCTURED_GRID
POINTS 3012 float
69.9759 18.75 4
67.2507 60.3285 4
69.976 18.75 2
73.0099 25.446 4
71.1327 20.9142 4
68.6801 16.6661 4
67.8262 19.9261 3.98398
67.2507 60.3286 2
71.1327 54.0858 4
68.6801 58.3339 4
65.6939 62.2254 4
65.313 59.0021 3.98482
74.6784 42.3946 4
73.7221 47.2057 4
69.9759 18.75 0
73.0099 25.446 2
68.6801 16.6661 2
71.1327 20.9142 2
67.8267 19.9288 2
74.6792 32.6053 4
73.7222 27.7943 4
72.1454 23.1494 4
70.6148 26.2211 3.98404
68.8865 21.9583 3.98449
67.2507 14.6715 4
66.6378 17.9714 3.98399
65.7983 21.025 3.97589
67.2507 60.3285 0
71.1327 54.0858 2
68.6801 58.3339 2
65.694 62.2255 2
65.3142 58.9996 2
72.1454 51.8506 4
69.9759 56.25 4
68.8369 53.113 3.98347
64.0165 64.0165 4
66.6114 57.1343 3.98436
63.8866 60.7669 3.98671
63.5019 57.7731 3.97803
60.3285 67.2507 4
74.6792 42.3947 2
73.7222 47.2057 2
74.9194 39.9526 4
74.2788 44.8158 4
72.1685 42.0857 3.98244
73.0099 49.554 4
71.2498 46.5983 3.98294
73.0099 25.446 0
71.1327 20.9142 0
68.6801 16.6661 0
67.8262 19.9261 0.0160206
74.6792 32.6053 2
73.7222 27.7943 2
67.2508 14.6715 2
72.1455 23.1494 2
70.6149 26.2217 2
66.6387 17.9742 2
68.8867 21.9604 2
65.7979 21.0252 2
74.9197 35.0474 4
74.2794 30.1841 4
72.1852 32.9432 3.98274
71.2788 28.4314 3.98343
69.8163 24.06 3.98442
68.3482 26.951 3.97448
66.7638 22.933 3.97537
65.694 12.7746 4
65.3247 16.1024 3.98562
64.7151 19.1943 3.97666
63.8874 22.0355 3.97183
71.1327 54.0858 0
65.6939 62.2254 0
68.6801 58.3339 0
65.313 59.0021 0.0151754
72.1455 51.8506 2
69.9759 56.25 2
68.8372 53.1108 2
64.0165 64.0165 2
66.6123 57.1313 2
63.8879 60.7653 2
63.5018 57.7739 2
62.2254 65.694 4
58.8952 65.4146 3.99205
69.7694 50.9888 3.98346
67.7843 55.1674 3.98362
66.6502 52.2095 3.97405
62.337 62.4282 3.98902
64.6622 56.0325 3.9772
62.2042 59.4063 3.97942
61.824 56.6824 3.97386
58.3339 68.6801 4
60.3285 67.2508 2
73.7221 47.2057 0
74.6784 42.3946 0
74.9197 39.9526 2
74.2794 44.8159 2
72.1683 42.0856 2
73.0099 49.554 2
71.2498 46.5978 2
75 37.5 4
72.4057 39.8023 3.98251
71.783 44.3531 3.98279
69.8047 41.7898 3.9728
70.5756 48.8136 3.98313
68.9133 46.0154 3.97337
74.6792 32.6053 0
73.7222 27.7943 0
67.2507 14.6715 0
72.1454 23.1494 0
70.6148 26.2211 0.0159606
68.8865 21.9583 0.0155114
66.6378 17.9714 0.0160064
65.7983 21.025 0.0241107
74.9197 35.0474 2
74.2794 30.1841 2
72.1849 32.9434 2
71.2788 28.4316 2
65.694 12.7745 2
65.3258 16.1044 2
69.8164 24.0612 2
68.3481 26.9512 2
64.7149 19.1939 2
66.7635 22.9333 2
63.887 22.0353 2
72.4135 35.2241 3.98249
71.8043 30.6762 3.98297
69.8407 33.2679 3.97334
68.9673 29.0376 3.97401
67.6125 24.9117 3.97475
66.1954 27.6338 3.97081
64.0165 10.9835 4
64.7572 23.8297 3.97161
63.8911 14.326 3.98757
63.5151 17.445 3.97906
62.9072 20.3206 3.9718
62.0915 22.9442 3.97028
60.6846 11.0968 3.98986
57.6128 11.4451 3.98346
72.1454 51.8506 0
69.9759 56.25 0
68.8369 53.113 0.0165265
64.0165 64.0165 0
63.8866 60.7669 0.0132946
66.6114 57.1343 0.0156363
63.5019 57.7731 0.0219682
62.2255 65.694 2
58.8958 65.4144 2
69.7696 50.9876 2
67.7848 55.1646 2
66.6499 52.209 2
62.3381 62.4272 2
64.6621 56.0328 2
62.2042 59.4074 2
61.824 56.6834 2
60.6695 63.9776 3.99075
57.026 66.7354 3.99272
57.5588 63.6938 3.98562
67.5083 50.1771 3.97348
65.7028 54.1736 3.97495
64.5373 51.3854 3.97016
60.7741 60.9401 3.98159
62.8208 55.0685 3.97315
60.6593 58.1613 3.97472
60.3274 55.7856 3.97323
56.25 69.9759 4
58.3339 68.6801 2
60.3285 67.2507 0
58.9218 9.65517 3.99081
62.2254 9.30607 4
73.0099 49.554 0
74.2788 44.8158 0
71.2498 46.5983 0.017058
72.1685 42.0857 0.0175593
74.9194 39.9526 0
75 37.5 2
72.4056 39.8024 2
71.7829 44.3526 2
69.8045 41.7896 2
70.5757 48.813 2
68.9133 46.015 2
72.4891 37.5121 3.98228
70.0417 39.6573 3.97264
69.4313 43.9079 3.97318
67.5976 41.4976 3.9695
68.2668 48.1076 3.97327
66.7104 45.4403 3.96972
74.9197 35.0474 0
74.2794 30.1841 0
72.1852 32.9432 0.0172591
71.2788 28.4314 0.0165732
65.694 12.7746 0
65.3247 16.1024 0.0143835
69.8163 24.06 0.0155837
68.3482 26.951 0.0255243
66.7638 22.933 0.0246272
64.7151 19.1943 0.0233354
63.8874 22.0355 0.0281699
72.4135 35.2241 2
71.8043 30.6765 2
69.8404 33.2681 2
68.9673 29.0378 2
64.0165 10.9835 2
63.8922 14.3274 2
63.5152 17.4441 2
67.6123 24.912 2
66.1953 27.6338 2
62.907 20.32 2
64.7569 23.8297 2
62.0912 22.9441 2
60.6854 11.0976 2
57.6129 11.4443 2
70.0584 35.3916 3.97281
69.4678 31.149 3.97337
67.6557 33.5903 3.96986
66.7728 29.622 3.97017
65.5247 25.6987 3.9711
64.1464 28.255 3.9701
62.3424 12.654 3.98883
62.8562 24.6374 3.97039
62.2008 15.7821 3.98131
61.8148 18.6836 3.97392
61.2153 21.3437 3.96898
60.4223 23.7292 3.97018
59.2469 12.7766 3.98207
55.8746 10.2316 3.98507
56.4055 13.1113 3.98
69.7694 50.9888 0.0165415
62.2254 65.694 0
58.8952 65.4146 0.00795139
67.7843 55.1674 0.0163753
66.6502 52.2095 0.0259472
62.337 62.4282 0.0109825
62.2042 59.4063 0.020578
64.6622 56.0325 0.0228023
61.824 56.6824 0.026144
60.6704 63.9771 2
57.0264 66.7354 2
57.5589 63.6949 2
67.5081 50.1766 2
65.7024 54.1734 2
64.537 51.3854 2
60.7743 60.9413 2
62.8207 55.0693 2
60.6593 58.1625 2
60.3276 55.7862 2
55.0715 67.9324 3.99298
59.2201 62.3682 3.98286
55.8057 64.9118 3.98802
56.3276 62.0928 3.98156
65.3317 49.4088 3.9695
63.7055 53.2921 3.97032
62.4398 50.6516 3.96842
59.3343 59.5595 3.9784
61.0753 54.3087 3.97227
59.2889 57.0119 3.97204
59.2402 55.1808 3.97578
48.1038 68.5795 3.98902
50.9491 69.932 3.99316
54.0858 71.1327 4
56.25 69.976 2
58.3339 68.6801 0
57.0591 8.33523 3.99135
60.3285 7.74928 4
58.9225 9.6556 2
62.2255 9.30602 2
70.5756 48.8136 0.0168651
71.783 44.3531 0.0172145
68.9133 46.0154 0.026629
69.8047 41.7898 0.0271988
72.4057 39.8023 0.0174927
75 37.5 0
72.4888 37.5122 2
70.0417 39.6572 2
69.4312 43.9076 2
67.5973 41.4974 2
68.2668 48.1072 2
66.7104 45.4402 2
70.1297 37.5213 3.9727
67.8347 39.5122 3.96951
67.2242 43.4702 3.96964
65.552 41.2094 3.9698
66.0689 47.4185 3.96946
64.6523 44.8482 3.9693
72.4135 35.2241 0.0175143
71.8043 30.6762 0.0170341
69.8407 33.2679 0.0266644
68.9673 29.0376 0.0259856
64.0165 10.9835 0
63.8911 14.326 0.0124253
63.5151 17.445 0.0209384
67.6125 24.9117 0.0252542
66.1954 27.6338 0.0291855
64.7572 23.8297 0.0283874
62.9072 20.3206 0.0281952
62.0915 22.9442 0.0297198
60.6846 11.0968 0.0101414
57.6128 11.4451 0.0165371
70.0583 35.3917 2
69.4678 31.1492 2
67.6555 33.5903 2
66.7729 29.6219 2
62.3434 12.6551 2
62.2007 15.7812 2
61.8148 18.6825 2
65.5244 25.6988 2
64.1463 28.255 2
61.2153 21.3433 2
62.8559 24.6374 2
60.4221 23.7294 2
59.247 12.776 2
56.4054 13.1103 2
55.8748 10.2308 2
67.8706 35.5471 3.96964
67.2654 31.6217 3.96977
65.6963 33.9269 3.9699
64.6627 30.1916 3.96946
63.5377 26.414 3.97009
62.2541 28.7782 3.97143
60.7765 14.221 3.98191
61.0425 25.3386 3.9705
60.6143 17.1253 3.97782
60.2208 19.8177 3.97005
59.6556 22.2622 3.96863
58.9723 24.3232 3.97062
54.0377 9.13469 3.9861
57.911 14.3298 3.98028
54.7869 12.0104 3.98138
55.3125 14.645 3.97865
67.5083 50.1771 0.0265161
57.026 66.7354 0.00728104
60.6695 63.9776 0.00924663
57.5588 63.6938 0.014381
65.7028 54.1736 0.0250482
64.5373 51.3854 0.0298411
60.7741 60.9401 0.0184051
60.6593 58.1613 0.0252751
62.8208 55.0685 0.0268526
60.3274 55.7856 0.0267692
55.0719 67.9324 2
59.2202 62.3694 2
55.8057 64.9127 2
56.3277 62.0941 2
65.3315 49.4087 2
63.7052 53.2923 2
62.4396 50.6516 2
59.3343 59.5607 2
61.0756 54.3091 2
59.2892 57.0124 2
59.2406 55.1811 2
53.0433 69.0002 3.99311
53.9681 66.0141 3.98877
57.8813 60.8724 3.97992
54.6847 63.2104 3.98387
55.2118 60.6188 3.97941
63.1922 48.6608 3.9684
61.7379 52.5744 3.96797
60.2637 50.0162 3.96779
58.0183 58.2622 3.97421
59.3228 53.9446 3.97215
58.124 55.807 3.96992
50.1105 67.8574 3.98901
47.464 66.5827 3.9865
46.0572 69.1588 3.98899
48.1037 68.58 2
48.8032 70.7233 3.99325
50.9494 69.9321 2
51.8506 72.1454 4
54.0858 71.1327 2
56.25 69.9759 0
55.1035 7.13992 3.99169
58.3339 6.31992 4
57.0597 8.33544 2
60.3286 7.74926 2
58.9218 9.65517 0.00918747
62.2254 9.30607 0
68.2668 48.1076 0.0267254
69.4313 43.9079 0.026825
66.7104 45.4403 0.0302804
67.5976 41.4976 0.0305039
70.0417 39.6573 0.0273601
72.4891 37.5121 0.0177241
70.1296 37.5213 2
67.8346 39.5121 2
67.2241 43.47 2
65.5517 41.2093 2
66.0689 47.4184 2
64.6522 44.8481 2
67.9309 37.5217 3.96954
65.7817 39.3698 3.96995
65.1755 43.025 3.96955
63.7335 40.9287 3.97186
63.9631 46.7164 3.96876
62.7996 44.215 3.97183
70.0584 35.3916 0.0271914
69.4678 31.149 0.0266318
67.6557 33.5903 0.030138
66.7728 29.622 0.0298286
62.3424 12.654 0.0111686
62.2008 15.7821 0.0186897
61.8148 18.6836 0.0260799
65.5247 25.6987 0.0288979
64.1464 28.255 0.0299042
62.8562 24.6374 0.029613
61.2153 21.3437 0.0310163
60.4223 23.7292 0.0298202
59.2469 12.7766 0.0179273
56.4055 13.1113 0.0199954
55.8746 10.2316 0.0149285
67.8706 35.5471 2
67.2654 31.6217 2
65.6961 33.9268 2
64.6627 30.1915 2
60.7764 14.2203 2
60.6142 17.1241 2
60.221 19.8167 2
63.5375 26.4139 2
62.2538 28.7783 2
59.6558 22.2622 2
61.0423 25.3388 2
58.9721 24.3235 2
57.9106 14.3289 2
55.3121 14.6441 2
54.0378 9.13393 2
54.7868 12.0093 2
65.8715 35.6664 3.96988
65.1831 32.1539 3.96945
64.2701 34.2496 3.97136
62.5825 30.6363 3.97122
61.6458 27.0731 3.97061
60.8367 29.1416 3.97416
59.3118 15.6664 3.97975
59.3177 25.7996 3.97252
59.1233 18.3548 3.97518
58.7343 20.859 3.9667
58.2757 23.0968 3.96855
57.9544 24.6686 3.97174
52.1124 8.15288 3.9869
53.058 11.0162 3.98261
56.6768 15.7408 3.97953
53.8093 13.68 3.97949
54.3757 15.9983 3.97891
55.0715 67.9324 0.00702342
65.3317 49.4088 0.0304975
55.8057 64.9118 0.0119769
59.2201 62.3682 0.0171378
56.3276 62.0928 0.0184362
63.7055 53.2921 0.0296806
62.4398 50.6516 0.0315754
59.3343 59.5595 0.0216028
59.2889 57.0119 0.0279568
61.0753 54.3087 0.0277319
59.2402 55.1808 0.024217
53.0436 69.0003 2
53.968 66.0148 2
57.8813 60.8736 2
54.6846 63.2115 2
55.2118 60.6203 2
63.1921 48.6608 2
61.7377 52.5744 2
60.2638 50.0161 2
58.0185 58.2635 2
59.3233 53.9447 2
58.1244 55.8071 2
52.0716 67.0006 3.98899
52.9542 64.2212 3.98563
56.6485 59.4903 3.97774
[...]
POINT_DATA 3012
SCALARS Jp_lamdaP float 4
LOOKUP_TABLE default
0.999968 1 1 0.999968
1 1 1 1
0.999971 1 1 0.999971
0.999942 1 1 0.999942
0.999963 1 1 0.999963
0.999977 1 1 0.999977
0.999707 1 1 0.999707
1 1 1 1
1 1 1 1
1 1 1 1
1 1 1 1
0.999859 1 1 0.999859
0.999906 1 1 0.999906
0.999937 1 1 0.999937
0.999972 1 1 0.999972
0.999948 1 1 0.999948
0.99998 1 1 0.99998
0.999966 1 1 0.999966
0.999711 1 1 0.999711
1 1 1 1
0.999933 1 1 0.999933
0.999953 1 1 0.999953
0.999593 1 1 0.999593
0.99967 1 1 0.99967
0.999991 1 1 0.999991
0.999757 1 1 0.999757
0.999278 1 1 0.999278
1 1 1 1
0.999976 1 1 0.999976
0.999989 1 1 0.999989
1 1 1 1
0.999866 1 1 0.999866
0.999948 1 1 0.999948
0.99997 1 1 0.99997
0.999745 1 1 0.999745
1 1 1 1
0.99983 1 1 0.99983
0.999905 1 1 0.999905
0.999371 1 1 0.999371
1 1 1 1
1 1 1 1
0.999967 1 1 0.999967
1 1 1 1
0.999927 1 1 0.999927
0.999546 1 1 0.999546
1 1 1 1
0.999676 1 1 0.999676
0.999953 1 1 0.999953
0.999968 1 1 0.999968
0.999982 1 1 0.999982
0.999715 1 1 0.999715
0.999954 1 1 0.999954
0.999939 1 1 0.999939
0.999994 1 1 0.999994
0.999958 1 1 0.999958
0.999595 1 1 0.999595
0.99976 1 1 0.99976
0.999673 1 1 0.999673
0.999264 1 1 0.999264
1 1 1 1
0.999919 1 1 0.999919
0.999624 1 1 0.999624
0.99957 1 1 0.99957
0.99963 1 1 0.99963
0.999005 1 1 0.999005
0.99914 1 1 0.99914
1 1 1 1
0.999836 1 1 0.999836
0.999387 1 1 0.999387
0.998817 1 1 0.998817
1 1 1 1
1 1 1 1
1 1 1 1
0.999873 1 1 0.999873
1 1 1 1
1 1 1 1
0.999727 1 1 0.999727
1 1 1 1
0.999826 1 1 0.999826
0.999918 1 1 0.999918
0.999369 1 1 0.999369
1 1 1 1
0.999999 1 1 0.999999
0.999681 1 1 0.999681
0.999765 1 1 0.999765
0.999036 1 1 0.999036
0.999955 1 1 0.999955
0.999298 1 1 0.999298
0.999442 1 1 0.999442
0.999054 1 1 0.999054
1 1 1 1
1 1 1 1
1 1 1 1
1 1 1 1
1 1 1 1
0.99996 1 1 0.99996
0.999585 1 1 0.999585
0.99997 1 1 0.99997
0.999664 1 1 0.999664
1 1 1 1
0.999516 1 1 0.999516
0.999645 1 1 0.999645
0.998725 1 1 0.998725
0.999698 1 1 0.999698
0.998833 1 1 0.998833
0.999917 1 1 0.999917
0.999945 1 1 0.999945
0.999996 1 1 0.999996
0.999962 1 1 0.999962
0.999596 1 1 0.999596
0.999677 1 1 0.999677
0.999764 1 1 0.999764
0.999249 1 1 0.999249
1 1 1 1
0.999927 1 1 0.999927
0.999539 1 1 0.999539
0.999571 1 1 0.999571
1 1 1 1
0.999865 1 1 0.999865
0.999632 1 1 0.999632
0.998979 1 1 0.998979
0.999369 1 1 0.999369
0.999158 1 1 0.999158
0.998819 1 1 0.998819
0.999533 1 1 0.999533
0.999547 1 1 0.999547
0.998818 1 1 0.998818
0.998919 1 1 0.998919
0.999034 1 1 0.999034
0.998576 1 1 0.998576
1 1 1 1
0.998737 1 1 0.998737
0.999948 1 1 0.999948
0.99944 1 1 0.99944
0.998904 1 1 0.998904
0.998631 1 1 0.998628
0.99999 1 1 0.99999
0.999669 1 1 0.999669
1 1 1 1
1 1 1 1
0.999734 1 1 0.999734
1 1 1 1
0.999932 1 1 0.999932
0.99983 1 1 0.99983
0.999367 1 1 0.999367
1 1 1 1
1 1 1 1
0.999703 1 1 0.999703
0.999785 1 1 0.999785
0.999039 1 1 0.999039
0.999967 1 1 0.999967
0.9993 1 1 0.9993
0.999441 1 1 0.999441
0.999042 1 1 0.999042
0.999988 1 1 0.999988
1 1 1 1
0.999738 1 1 0.999738
0.998933 1 1 0.998933
0.999175 1 1 0.999175
0.99869 1.00003 1 0.998657
0.999535 1 1 0.999535
0.998966 1 1 0.998966
0.999106 1 1 0.999106
0.998925 1 1 0.998925
1 1 1 1
1 1 1 1
1 1 1 1
0.999998 1 1 0.999998
1 1 1 1
1 1 1 1
1 1 1 1
0.999648 1 1 0.999648
0.999565 1 1 0.999565
1 1 1 1
1 1 1 1
0.999518 1 1 0.999518
0.999633 1 1 0.999633
0.998726 1 1 0.998726
0.999668 1 1 0.999668
0.998833 1 1 0.998833
0.999505 1 1 0.999505
0.998665 1 1 0.998665
0.998789 1 1 0.998789
0.999404 1.00103 1 0.998372
0.998872 1 1 0.998872
0.998606 1.00012 1 0.998483
1 1 1 1
0.999934 1 1 0.999934
0.99945 1 1 0.99945
0.999572 1 1 0.999572
1 1 1 1
0.999895 1 1 0.999895
0.999636 1 1 0.999636
0.998952 1 1 0.998952
0.999176 1 1 0.999176
0.999352 1 1 0.999352
0.998821 1 1 0.998821
0.99953 1 1 0.99953
0.999548 1 1 0.999548
0.998763 1 1 0.998763
0.99894 1 1 0.99894
1 1 1 1
0.999937 1 1 0.999937
0.999463 1 1 0.999463
0.999035 1 1 0.999035
0.998545 1 1 0.998545
0.9989 1 1 0.9989
0.998754 1 1 0.998754
0.998642 1.00001 1 0.998631
0.999985 1 1 0.999985
0.999669 1 1 0.999669
0.998679 1 1 0.998679
0.998878 1 1 0.998878
0.998887 1.00044 1 0.998445
0.998469 1 1 0.998466
0.998666 1 1 0.998666
0.999381 1.00095 1 0.998427
0.999973 1 1 0.999973
0.998692 1.00013 1 0.998565
0.999505 1 1 0.999505
0.999041 1 1 0.999041
0.998711 1 1 0.998711
0.999021 1.00045 1 0.998574
0.999586 1 1 0.999586
0.999769 1 1 0.999769
0.999312 1 1 0.999312
0.999694 1 1 0.999694
1 1 1 1
1 1 1 1
0.999786 1 1 0.999786
0.999041 1 1 0.999041
0.999978 1 1 0.999978
0.999441 1 1 0.999441
0.999302 1 1 0.999302
0.999031 1 1 0.999031
0.999992 1 1 0.999992
1 1 1 1
0.999739 1 1 0.999739
0.998934 1 1 0.998934
0.99918 1 1 0.99918
0.998675 1.00002 1 0.998656
0.999536 1 1 0.999536
0.998976 1 1 0.998976
0.999104 1 1 0.999104
0.998914 1 1 0.998914
1 1 1 1
0.99963 1 1 0.99963
0.999843 1 1 0.999843
0.999392 1 1 0.999392
0.998743 1.00018 1 0.998561
0.998822 1 1 0.998822
1.00038 1.00191 1 0.998472
0.999208 1 1 0.999208
0.998856 1.00002 1 0.998835
0.999464 1 1.00057 0.998891
0.998818 1 1 0.998818
0.999964 1 1 0.999964
1 1 1 1
1 1 1 1
1 1 1 1
1 1 1 1
1 1 1 1
1 1 1 1
0.999996 1 1 0.999996
1 1 1 1
0.99967 1 1 0.99967
0.999614 1 1 0.999614
0.998833 1 1 0.998833
0.998726 1 1 0.998726
0.99952 1 1 0.99952
1 1 1 1
0.999504 1 1 0.999504
0.998665 1 1 0.998665
0.998789 1 1 0.998789
0.999224 1.00085 1 0.998372
0.998872 1 1 0.998872
0.998643 1.00016 1 0.998483
0.998651 1 1 0.998651
0.999718 1.00141 1 0.998312
0.998852 1.00042 1 0.998435
1.00387 1.00559 1 0.99829
0.998732 1.00021 1 0.998518
1.00141 1.00304 1 0.998376
0.999527 1 1 0.999527
0.999548 1 1 0.999548
0.998708 1 1 0.998708
0.99896 1 1 0.99896
1 1 1 1
0.999927 1 1 0.999927
0.999486 1 1 0.999486
0.999036 1 1 0.999036
0.998513 1 1 0.998513
0.998771 1 1 0.998771
0.998896 1 1 0.998896
0.998654 1.00002 1 0.998634
0.999981 1 1 0.999981
0.999669 1 1 0.999669
0.998661 1 1 0.998661
0.998877 1 1 0.998877
0.999005 1.00057 1 0.998432
0.998522 1.00002 1 0.998499
0.999966 1 1 0.999966
0.999504 1 1 0.999504
0.999067 1 1 0.999067
0.998667 1 1 0.998667
0.99968 1.00126 1 0.998421
0.998685 1 1 0.998685
0.998832 1.00027 1 0.998566
0.999343 1.00077 1 0.998574
0.999587 1 1 0.999587
0.999309 1 1 0.999309
0.999767 1 1 0.999767
0.999256 1.00088 1 0.998382
0.998952 1.00048 1 0.998469
1.00342 1.00514 1 0.998287
1.00038 1.00203 1 0.998355
0.999143 1.00065 1 0.998495
1.00319 1.00476 1 0.998432
0.999543 1 1 0.999543
1.00039 1.00186 1 0.998533
0.99921 1 1 0.99921
0.998803 1 1 0.998803
0.998703 1.00014 1 0.99856
1.00193 1.0033 1 0.99863
0.999844 1 1 0.999844
0.999294 1 1 0.999294
0.99936 1 1 0.99936
0.999181 1 1 0.999181
0.998935 1 1 0.998935
1 1 1 1
0.999996 1 1 0.999996
0.99974 1 1 0.99974
0.999184 1 1 0.999184
0.998655 1 1 0.998655
0.999537 1 1 0.999537
0.999102 1 1 0.999102
0.998985 1 1 0.998985
0.998903 1 1 0.998903
1 1 1 1
0.99963 1 1 0.99963
0.999847 1 1 0.999847
0.99939 1 1 0.99939
0.998699 1.00014 1 0.998559
0.998825 1 1 0.998825
0.99996 1.00149 1 0.998472
0.99921 1 1 0.99921
0.998867 1.00002 1 0.998847
0.999417 1 1.00053 0.998883
0.998867 1 1 0.998867
1 1 1 1
0.999907 1 1 0.999907
0.999307 1 1 0.999307
0.999493 1 1 0.999493
0.999197 1 1 0.999197
1.00092 1.00252 1 0.998406
0.999225 1.00058 1 0.998649
1.00162 1.0032 1 0.998417
0.99975 1 1.00078 0.998969
0.998771 1.00001 1 0.998766
0.999261 1 1.00058 0.998681
0.999953 1 1 0.999953
0.999721 1 1 0.999721
0.999972 1 1 0.999972
0.999967 1 1 0.999967
1 1 1 1
1 1 1 1
1 1 1 1
1 1 1 1
1 1 1 1
1 1 1 1
1 1 1 1
1 1 1 1
1 1 1 1
0.999994 1 1 0.999994
1 1 1 1
0.998872 1 1 0.998872
0.998789 1 1 0.998789
0.998677 1.00019 1 0.998483
0.999037 1.00067 1 0.998371
0.998666 1 1 0.998666
0.999503 1 1 0.999503
0.998651 1 1 0.998651
0.999646 1.00134 1 0.998312
0.998724 1.00029 1 0.998435
1.00392 1.00564 1 0.998288
0.998753 1.00024 1 0.998516
1.00104 1.00267 1 0.998377
0.999647 1.00135 1 0.998297
1.00606 1.00783 1 0.998239
1.00255 1.00423 1 0.998333
1.00936 1.01108 1 0.998306
1.00081 1.00241 1 0.998397
1.00582 1.00739 1 0.998437
0.998643 1 1 0.998643
0.998876 1 1 0.998876
0.999113 1.00069 1 0.99842
0.998574 1.00004 1 0.998533
0.99996 1 1 0.99996
0.999504 1 1 0.999504
0.999093 1 1 0.999093
0.998667 1 1 0.998667
0.999985 1.00157 1 0.998414
0.998959 1.00039 1 0.998567
0.998659 1 1 0.998659
0.99969 1.00112 1 0.998575
0.999589 1 1 0.999589
0.999307 1 1 0.999307
0.999765 1 1 0.999765
0.999381 1.00103 1 0.998354
0.998926 1.00046 1 0.998469
1.00355 1.00528 1 0.998278
1.00098 1.00262 1 0.99836
0.999544 1 1 0.999544
0.999207 1 1 0.999207
0.998846 1 1.00001 0.998835
0.999278 1.00077 1 0.998505
1.00298 1.00455 1 0.998443
0.998674 1.00013 1 0.99854
1.00066 1.00213 1 0.998534
1.00161 1.00298 1 0.99864
0.999297 1 1 0.999297
0.999166 1 1 0.999166
0.99984 1 1 0.99984
0.999373 1 1 0.999373
1.0045 1.00628 1 0.998229
1.00279 1.00448 1 0.998321
1.00998 1.01175 1 0.99825
1.00504 1.00669 1 0.998367
1.00221 1.00372 1 0.998493
1.00689 1.00842 1 0.998486
0.999278 1 1 0.999278
1.00346 1.00483 1 0.998638
0.999008 1 1 0.999008
0.998791 1 1.00018 0.998616
0.999888 1.00141 1 0.998477
1.00381 1.00517 1 0.998645
0.999884 1 1 0.999884
0.999451 1 1 0.999451
0.999172 1 1 0.999172
0.9992 1 1 0.9992
0.999119 1 1 0.999119
1 1 1 1
0.998649 1.00009 1 0.998557
0.999851 1 1 0.999851
0.99963 1 1 0.99963
0.999388 1 1 0.999388
0.998827 1 1 0.998827
0.999571 1.0011 1 0.998471
0.999213 1 1 0.999213
0.999416 1 1.00054 0.998875
0.998859 1 1 0.998859
0.998915 1 1 0.998915
1 1 1 1
0.999912 1 1 0.999912
0.999307 1 1 0.999307
0.999493 1 1 0.999493
0.999183 1 1 0.999183
1.0009 1.0025 1 0.998402
0.999074 1.00042 1 0.99865
1.00171 1.00331 1 0.998411
0.999602 1 1.00063 0.998971
0.998782 1.00001 1 0.998776
0.999456 1 1.00076 0.998698
0.999936 1 1 0.999936
0.999587 1 1 0.999587
0.999233 1 1.00015 0.999087
0.999276 1 1 0.999276
0.999076 1 1 0.999076
1.00369 1.00532 1 0.998384
0.999928 1.00135 1 0.998581
1.00241 1.0039 1 0.99852
1.00175 1 1.00298 0.998771
0.998579 1 1 0.998579
0.999956 1 1 0.999956
0.999665 1 1 0.999665
0.999706 1 1 0.999706
0.999554 1 1 0.999554
0.999729 1 1 0.999729
0.999975 1 1 0.999975
0.999973 1 1 0.999973
1 1 1 1
0.999969 1 1 0.999969
1 1 1 1
1 1 1 1
1 1 1 1
1 1 1 1
1 1 1 1
1 1 1 1
1 1 1 1
1 1 1 1
1 1 1 1
0.999999 1 1 0.999999
1 1 1 1
0.998788 1.00027 1 0.998515
0.998594 1.00016 1 0.998435
1.00068 1.00231 1 0.998377
1.00397 1.00569 1 0.998285
0.999583 1.00127 1 0.998313
0.99865 1 1 0.99865
0.999692 1.0014 1 0.998297
1.00616 1.00794 1 0.998231
1.00223 1.0039 1 0.998333
1.00939 1.01109 1 0.998311
1.00099 1.0026 1 0.998394
1.00574 1.00732 1 0.99844
1.00566 1.00746 1 0.998207
1.01196 1.01374 1 0.998249
1.0072 1.00884 1 0.998373
1.01018 1.01186 1 0.998339
1.00551 1.00709 1 0.998425
1.00868 1.0102 1 0.998504
0.999514 1.00119 1 0.998326
0.998896 1.00043 1 0.998468
1.00369 1.00543 1 0.99827
1.00157 1.00321 1 0.998366
0.999546 1 1 0.999546
0.999203 1 1 0.999203
0.998976 1 1.00011 0.998867
0.999424 1.00091 1 0.998515
1.00277 1.00432 1 0.998453
1.0009 1.00237 1 0.998535
0.998646 1.00013 1 0.99852
1.00133 1.00268 1 0.99865
0.9993 1 1 0.9993
0.999151 1 1 0.999151
0.999837 1 1 0.999837
0.999386 1 1 0.999386
1.00463 1.00641 1 0.99823
1.003 1.00469 1 0.998319
1.0096 1.01136 1 0.998255
1.00457 1.00622 1 0.998365
0.999277 1 1 0.999277
0.999039 1 1 0.999035
0.998963 1 1.00035 0.998612
1.00208 1.0036 1 0.998485
1.00676 1.00826 1 0.998518
1.00004 1.00157 1 0.998467
1.00343 1.0048 1 0.998639
1.00374 1.00508 1 0.998675
0.999172 1 1 0.999172
0.999115 1 1 0.999115
0.999198 1 1 0.999198
0.999859 1 1 0.999859
0.999462 1 1 0.999462
1.01165 1.01345 1 0.998222
1.00933 1.01108 1 0.998268
1.00805 1.00963 1 0.998436
1.00613 1.00757 1 0.998572
0.999153 1 1 0.999153
1.00567 1.00696 1 0.99872
0.999101 1 1.00023 0.998868
0.99947 1.00056 1.00051 0.998401
1.00212 1.00371 1 0.998412
0.999869 1 1 0.999869
0.99957 1 1 0.99957
0.999293 1 1 0.999293
0.999135 1 1 0.999135
0.999074 1 1 0.999074
0.999073 1 1 0.999073
1 1 1 1
0.999916 1 1 0.999916
1.00085 1.00246 1 0.998399
0.999493 1 1 0.999493
0.999307 1 1 0.999307
0.999169 1 1 0.999169
0.998943 1.00029 1 0.998651
1.00167 1.00327 1 0.998406
0.999576 1 1.0006 0.998974
0.999352 1 1.00064 0.998715
0.998801 1.00001 1 0.998787
0.999941 1 1 0.999941
0.999588 1 1 0.999588
0.999253 1 1.00016 0.999096
0.999275 1 1 0.999275
0.999062 1 1 0.999062
1.00373 1.00536 1 0.998381
0.999646 1.00107 1 0.998576
1.00237 1.00384 1 0.998538
1.00116 1 1.00241 0.998759
0.998609 1 1.00006 0.998549
0.999652 1 1 0.999652
0.999338 1 1 0.999338
1.00039 1 1.00145 0.998941
0.999082 1 1 0.999082
0.998973 1 1 0.998973
1.00713 1.00853 1 0.998618
0.999826 1.00134 1 0.998488
1.00314 1.00459 1 0.998556
1.00266 1 1.00402 0.998644
0.998349 1 1 0.998349
0.99996 1 1 0.99996
0.999678 1 1 0.999678
0.99947 1 1 0.99947
0.99969 1 1 0.99969
0.999729 1 1 0.999729
0.99953 1 1 0.99953
0.999409 1 1 0.999409
0.999522 1 1 0.999522
0.999735 1 1 0.999735
0.999974 1 1 0.999974
0.999975 1 1 0.999975
1 1 1 1
0.999974 1 1 0.999974
1 1 1 1
1 1 1 1
1 1 1 1
1 1 1 1
1 1 1 1
1 1 1 1
1 1 1 1
1 1 1 1
1 1 1 1
1 1 1 1
1 1 1 1
1.00117 1.00278 1 0.998392
1.0019 1.00357 1 0.998333
1.00567 1.00724 1 0.998443
1.00942 1.01112 1 0.998317
1.00625 1.00804 1 0.998224
0.999735 1.00144 1 0.998297
1.00569 1.0075 1 0.998202
1.01194 1.01372 1 0.998247
1.0076 1.00926 1 0.99836
1.01046 1.01214 1 0.998338
1.00489 1.00648 1 0.998425
1.00867 1.01016 1 0.998524
1.01164 1.01345 1 0.998218
1.01218 1.0139 1 0.998307
1.01076 1.01235 1 0.998427
1.00862 1.01004 1 0.998594
1.00475 1.00653 1 0.998231
1.00319 1.00489 1 0.998317
1.00921 1.01097 1 0.998259
1.00412 1.00576 1 0.998364
0.999276 1 1 0.999276
0.999062 1 1 0.999062
0.999146 1 1.00054 0.998608
1.00194 1.00347 1 0.998478
1.00667 1.00813 1 0.998551
1.00343 1.0048 1 0.998641
1.00013 1.00167 1 0.998458
1.00359 1.00489 1 0.998704
0.999173 1 1 0.999173
0.999111 1 1 0.999111
0.999195 1 1 0.999195
0.999834 1 1 0.999834
0.999474 1 1 0.999474
1.0113 1.0131 1 0.998226
1.00922 1.01097 1 0.998275
1.00789 1.00947 1 0.99844
0.99915 1 1 0.99915
0.999147 1 1.00025 0.998897
0.999692 1.00054 1.00076 0.998395
1.0063 1.00775 1 0.998563
1.00224 1.00379 1 0.998453
1.00499 1.00628 1 0.998718
0.999871 1 1 0.999871
0.999133 1 1 0.999133
0.999089 1 1 0.999089
0.999069 1 1 0.999069
0.999301 1 1 0.999301
0.999551 1 1 0.999551
1.01229 1.01406 1 0.998246
1.00988 1.01156 1 0.998334
1.00853 1.01003 1 0.998508
1.00824 1.00957 1 0.998681
0.999073 1 1 0.999073
1.00308 1.00455 1 0.998538
1.00022 1 1.00164 0.998586
1.00076 1.00145 1.00104 0.998264
0.999902 1 1 0.999902
0.99963 1 1 0.99963
0.999373 1 1 0.999373
0.999111 1 1 0.999111
0.999069 1 1 0.999069
0.999008 1 1 0.999008
0.999945 1 1 0.999945
0.999589 1 1 0.999589
1.00385 1.00548 1 0.998378
0.999274 1 1 0.999274
0.999105 1 1 0.999105
0.999049 1 1 0.999049
0.999412 1.00084 1 0.99857
1.00245 1.0039 1 0.998556
1.00059 1 1.00184 0.998747
0.998798 1.00001 1.00027 0.998518
0.999653 1 1 0.999653
0.999347 1 1 0.999347
1.00029 1 1.00134 0.998958
0.999088 1 1 0.999088
0.998989 1 1 0.998989
1.00719 1.00857 1 0.998627
0.999795 1.00131 1 0.998486
1.00323 1.00461 1 0.998632
1.00291 1 1.00428 0.998629
0.998343 1 1.00003 0.998314
0.999425 1 1 0.999425
0.999136 1 1 0.999136
1.00233 1 1.0035 0.998831
0.998902 1 1 0.998902
1.01386 1.01519 1 0.998693
1.00854 1.00996 0.999872 0.998721
1.00138 1.00307 1 0.998315
1.00251 1 1.00418 0.998337
0.999691 1 1 0.999691
0.99948 1 1 0.99948
0.99935 1 1 0.99935
0.999729 1 1 0.999729
0.999506 1 1 0.999506
0.999735 1 1 0.999735
0.999391 1 1 0.999391
0.999531 1 1 0.999531
0.99929 1 1 0.99929
0.99939 1 1 0.99939
0.999527 1 1 0.999527
0.999734 1 1 0.999734
0.99997 1 1 0.99997
0.999973 1 1 0.999973
1 1 1 1
0.999975 1 1 0.999975
1 1 1 1
1 1 1 1
1 1 1 1
1 1 1 1
1 1 1 1
1 1 1 1
1 1 1 1
1 1 1 1
1 1 1 1
1 1 1 1
1 1 1 1
1.00428 1.00586 1 0.998426
1.008 1.00967 1 0.998348
1.00865 1.01012 1 0.998545
1.01071 1.0124 1 0.998337
1.01191 1.01368 1 0.998246
1.00573 1.00755 1 0.998197
1.01152 1.01333 1 0.998223
1.01165 1.01336 1 0.998305
1.01047 1.01206 1 0.998431
1.00954 1.01097 1 0.998589
1.01308 1.01484 1 0.998273
1.01306 1.01467 1 0.998419
1.0129 1.01438 1 0.998544
1.01095 1.01275 1 0.998229
1.00912 1.01086 1 0.998282
1.00769 1.00926 1 0.998444
0.999147 1 1 0.999147
0.999081 1 1.00015 0.998926
0.999773 1.00054 1.00085 0.998388
1.0064 1.00786 1 0.998554
1.00446 1.00575 1 0.998716
1.0025 1.00401 1 0.998494
0.999131 1 1 0.999131
0.999104 1 1 0.999104
0.999063 1 1 0.999063
0.999874 1 1 0.999874
0.999309 1 1 0.999309
0.999532 1 1 0.999532
1.01291 1.01468 1 0.998248
1.00973 1.01141 1 0.998335
1.00842 1.00994 1 0.998495
0.999067 1 1 0.999067
1.00001 1 1.00138 0.99864
1.00072 1.00155 1.0009 0.998273
1.00855 1.00986 1 0.998698
1.00338 1.00486 1 0.998531
0.999923 1 1 0.999923
0.999631 1 1 0.999631
0.999072 1 1 0.999072
0.999033 1 1 0.999033
0.999112 1 1 0.999112
0.999358 1 1 0.999358
1.01361 1.01529 1 0.99834
1.00976 1.01179 0.999566 0.998427
1.01062 1.01235 0.999615 0.998671
1.00734 1.0086 1 0.998742
0.999803 1 1.00087 0.998931
1.00131 1.00168 1.0014 0.998237
1.00107 1 1.00264 0.998432
0.999967 1 1 0.999967
0.999748 1 1 0.999748
0.999636 1 1 0.999636
0.9994 1 1 0.9994
0.999187 1 1 0.999187
0.998984 1 1 0.998984
0.999096 1 1 0.999096
1.00237 1 1.00329 0.999082
0.999654 1 1 0.999654
0.999355 1 1 0.999355
1.00712 1.00849 1 0.998636
0.999093 1 1 0.999093
1.00041 1 1.00144 0.998975
0.999005 1 1 0.999005
0.999705 1.00122 1 0.998484
1.00322 1.00451 1 0.998708
1.00316 1 1.00455 0.998614
0.998279 1 1 0.998279
0.999416 1 1 0.999416
0.999145 1 1 0.999145
1.00271 1 1.00386 0.998845
0.998923 1 1 0.998919
1.01345 1.01478 0.999996 0.998689
1.00788 1.00923 0.999949 0.998709
1.00182 1.00348 1 0.998351
1.00203 1.00002 1.0037 0.998313
0.999282 1 1 0.999282
1.01422 1.0169 0.998717 0.998644
0.999238 1 1.00025 0.998986
1.00126 1 1.00259 0.998679
1.01475 1.01628 0.999714 0.998779
1.00593 1.00758 1 0.998369
1.00291 1.0015 1.00323 0.998181
0.999491 1 1 0.999491
0.999349 1 1 0.999349
0.999235 1 1 0.999235
0.999735 1 1 0.999735
0.999539 1 1 0.999539
0.999373 1 1 0.999373
0.999733 1 1 0.999733
0.999527 1 1 0.999527
0.999275 1 1 0.999275
0.999408 1 1 0.999408
0.999199 1 1 0.999199
0.999273 1 1 0.999273
0.999417 1 1 0.999417
0.999538 1 1 0.999538
0.999725 1 1 0.999725
0.999967 1 1 0.999967
0.999969 1 1 0.999969
1 1 1 1
0.999972 1 1 0.999972
1 1 1 1
1 1 1 1
1 1 1 1
1 1 1 1
1 1 1 1
0.99998 1 1 0.99998
1 1 1 1
1 1 1 1
1 1 1 1
1 1 1 1
1 1 1 1
1 1 1 1
1.01048 1.01192 1 0.998583
1.01019 1.01177 1 0.998436
1.01112 1.01284 1 0.998303
1.01141 1.0132 1 0.998228
1.01278 1.01453 1 0.998282
1.0134 1.01502 1 0.998407
1.01333 1.01479 1 0.998557
1.01419 1.01583 1 0.998386
1.01617 1.01786 0.999817 0.998518
1.00864 1.01405 0.995967 0.998688
1.01351 1.01529 1 0.998251
1.00962 1.01131 1 0.998336
1.00841 1.00994 1 0.998483
0.999104 1 1.00004 0.99906
0.99994 1 1.00125 0.998693
1.0006 1.00154 1.00078 0.998282
1.00891 1.01021 1 0.998715
1.00337 1.00485 1 0.998524
0.999075 1 1 0.999075
0.999057 1 1 0.999057
0.999114 1 1 0.999114
0.999944 1 1 0.999944
0.999631 1 1 0.999631
0.999344 1 1 0.999344
1.01322 1.0149 1 0.998354
0.999963 1 1 0.999963
0.999735 1 1 0.999735
1.00951 1.01142 0.999688 0.998425
1.01179 1.01336 0.999812 0.998641
0.999796 1 1.00083 0.998967
1.00169 1 1.0033 0.998399
1.00086 1.00178 1.00084 0.998245
1.00683 1.0081 1 0.998737
0.999675 1 1 0.999675
0.999398 1 1 0.999398
0.999062 1 1 0.999062
1.0008 1 1.00165 0.999148
0.998963 1 1 0.998963
0.99919 1 1 0.99919
1.01487 1.01678 0.999632 0.998492
1.01339 1.01543 0.999453 0.998542
1.01064 1.01322 0.998579 0.998865
1.0022 1.00369 1 0.998514
1.00126 1 1.00234 0.99892
1.00404 1.00036 1.00547 0.99822
0.999752 1 1 0.999752
0.999709 1 1 0.999709
0.999562 1 1 0.999562
0.999402 1 1 0.999402
0.999253 1 1 0.999253
0.999025 1 1 0.999025
1.00331 1 1.00443 0.998886
0.999167 1 1 0.999167
0.999407 1 1 0.999407
0.999154 1 1 0.999154
1.01318 1.01452 0.999999 0.998685
1.00747 1.00879 1 0.998698
0.998935 1 1 0.998935
1.00294 1 1.00409 0.998859
1.00237 1.00395 1.00004 0.998387
1.00166 1.00009 1.00329 0.998289
0.999279 1 1 0.999279
1.0142 1.01712 0.99846 0.998662
0.999132 1 1.00014 0.998992
1.00127 1 1.00261 0.998658