# vtk DataFile Version 2.0
Wound Healing Simulation
ASCII
DATASET UNSTRUCTURED_GRID
POINTS 3012 float
69.9759 18.75 4
67.2507 60.3285 4
69.976 18.75 2
73.0099 25.446 4
71.1327 20.9142 4
68.6801 16.6661 4
67.8241 19.9264 3.97922
67.2507 60.3286 2
71.1327 54.0858 4
68.6801 58.3339 4
65.6939 62.2254 4
65.3107 59.0005 3.97825
74.6784 42.3946 4
73.7221 47.2057 4
69.9759 18.75 0
73.0099 25.446 2
68.6801 16.6661 2
71.1327 20.9142 2
67.8247 19.9298 2
74.6792 32.6053 4
73.7222 27.7943 4
72.1454 23.1494 4
70.613 26.2211 3.97885
68.8844 21.9581 3.97967
67.2507 14.6715 4
66.6356 17.9726 3.97835
65.7928 21.0278 3.96839
67.2507 60.3285 0
71.1327 54.0858 2
68.6801 58.3339 2
65.694 62.2255 2
65.3121 58.996 2
72.1454 51.8506 4
69.9759 56.25 4
68.835 53.1131 3.97887
64.0165 64.0165 4
66.6093 57.1333 3.97887
63.8838 60.7647 3.97857
63.4961 57.767 3.96902
60.3285 67.2507 4
74.6792 42.3947 2
73.7222 47.2057 2
74.9194 39.9526 4
74.2788 44.8158 4
72.1674 42.0856 3.97892
73.0099 49.554 4
71.2482 46.598 3.97828
73.0099 25.446 0
71.1327 20.9142 0
68.6801 16.6661 0
67.8241 19.9264 0.0207803
74.6792 32.6053 2
73.7222 27.7943 2
67.2508 14.6715 2
72.1455 23.1494 2
70.6129 26.2217 2
66.6365 17.9771 2
68.8846 21.9603 2
65.792 21.0287 2
74.9197 35.0474 4
74.2794 30.1841 4
72.1841 32.9437 3.97921
71.2772 28.4316 3.97856
69.8143 24.0596 3.97945
68.3432 26.9528 3.96778
66.7585 22.9351 3.96806
65.694 12.7746 4
65.3218 16.1048 3.97759
64.7092 19.1989 3.96879
63.861 22.0464 3.96554
71.1327 54.0858 0
65.6939 62.2254 0
68.6801 58.3339 0
65.3107 59.0005 0.0217532
72.1455 51.8506 2
69.9759 56.25 2
68.8352 53.111 2
64.0165 64.0165 2
66.6102 57.1291 2
63.8857 60.7606 2
63.4953 57.7667 2
62.2254 65.694 4
58.8934 65.4136 3.98826
69.7676 50.9889 3.9786
67.7823 55.1671 3.97896
66.6453 52.2077 3.96754
62.3341 62.426 3.98126
64.6566 56.0287 3.96879
62.1982 59.3962 3.96864
61.8138 56.6717 3.96485
58.3339 68.6801 4
60.3285 67.2508 2
73.7221 47.2057 0
74.6784 42.3946 0
74.9197 39.9526 2
74.2794 44.8159 2
72.1668 42.0855 2
73.0099 49.554 2
71.248 46.5977 2
75 37.5 4
72.4047 39.8024 3.97965
71.7816 44.3529 3.9789
69.8011 41.7899 3.96843
70.5739 48.8135 3.97825
68.9086 46.0143 3.96782
74.6792 32.6053 0
73.7222 27.7943 0
67.2507 14.6715 0
72.1454 23.1494 0
70.613 26.2211 0.0211537
68.8844 21.9581 0.020328
66.6356 17.9726 0.0216485
65.7928 21.0278 0.0316082
74.9197 35.0474 2
74.2794 30.1841 2
72.1835 32.944 2
71.277 28.4321 2
65.694 12.7745 2
65.3234 16.1098 2
69.8143 24.0608 2
68.3429 26.9535 2
64.7083 19.1997 2
66.7579 22.936 2
63.8609 22.0468 2
72.4125 35.2244 3.97968
71.8031 30.6766 3.97917
69.8372 33.2694 3.96859
68.9627 29.0394 3.96794
67.6075 24.9135 3.96787
66.1577 27.6439 3.967
64.0165 10.9835 4
64.7244 23.8406 3.96605
63.8879 14.3294 3.97853
63.5083 17.4539 3.96935
62.8856 20.3326 3.96479
62.0155 22.9712 3.96716
60.6823 11.0999 3.98281
57.6101 11.4551 3.97429
72.1454 51.8506 0
69.9759 56.25 0
68.835 53.1131 0.0211344
64.0165 64.0165 0
63.8838 60.7647 0.0214317
66.6093 57.1333 0.0211292
63.4961 57.767 0.0309808
62.2255 65.694 2
58.8951 65.4123 2
69.7675 50.9878 2
67.7828 55.1638 2
66.6447 52.2069 2
62.3363 62.4226 2
64.6556 56.0281 2
62.1973 59.3969 2
61.8132 56.6715 2
60.6669 63.9754 3.98397
57.0245 66.7346 3.98974
57.5561 63.6864 3.97655
67.5034 50.1755 3.96733
65.6977 54.1713 3.96801
64.5001 51.3744 3.96548
60.7693 60.9277 3.97144
62.8052 55.0592 3.96479
60.6483 58.1452 3.96462
60.3049 55.7671 3.96422
56.25 69.9759 4
58.3339 68.6801 2
60.3285 67.2507 0
58.92 9.65763 3.98542
62.2254 9.30607 4
73.0099 49.554 0
74.2788 44.8158 0
71.2482 46.598 0.0217183
72.1674 42.0856 0.0210828
74.9194 39.9526 0
75 37.5 2
72.4046 39.8024 2
71.7815 44.3525 2
69.8005 41.7895 2
70.5737 48.8131 2
68.9085 46.0137 2
72.4881 37.5123 3.97929
70.0385 39.6578 3.96862
69.4272 43.9074 3.96831
67.5626 41.4943 3.96899
68.262 48.1062 3.96743
66.6642 45.432 3.96789
74.9197 35.0474 0
74.2794 30.1841 0
72.1841 32.9437 0.0207863
71.2772 28.4316 0.021441
65.694 12.7746 0
65.3218 16.1048 0.0224059
69.8143 24.0596 0.020554
68.3432 26.9528 0.0322171
66.7585 22.9351 0.0319435
64.7092 19.1989 0.0312108
63.861 22.0464 0.0344637
72.4125 35.2245 2
71.803 30.6771 2
69.8366 33.2698 2
68.9626 29.04 2
64.0165 10.9835 2
63.89 14.334 2
63.5073 17.4547 2
67.6071 24.9143 2
66.1579 27.6443 2
62.886 20.3329 2
64.7242 23.8412 2
62.0146 22.9718 2
60.6852 11.1035 2
57.612 11.4547 2
70.0553 35.3928 3.96868
69.4641 31.1506 3.96828
67.6246 33.5954 3.96859
66.7346 29.6309 3.96739
65.4877 25.7094 3.96651
64.0373 28.2792 3.97103
62.3398 12.6574 3.98065
62.7675 24.6644 3.96859
62.1941 15.7964 3.96957
61.8011 18.6987 3.96441
61.15 21.3712 3.96522
60.2914 23.7724 3.96993
59.243 12.7949 3.97241
55.8724 10.2408 3.97694
56.4007 13.1421 3.97157
69.7676 50.9889 0.0213998
62.2254 65.694 0
58.8934 65.4136 0.01174
67.7823 55.1671 0.0210358
66.6453 52.2077 0.032464
62.3341 62.426 0.0187433
62.1982 59.3962 0.0313573
64.6566 56.0287 0.0312122
61.8138 56.6717 0.0351547
60.669 63.9733 2
57.0258 66.7337 2
57.5564 63.6871 2
67.503 50.1748 2
65.6969 54.1706 2
64.5002 51.374 2
60.7684 60.9288 2
62.8057 55.0591 2
60.648 58.1454 2
60.3054 55.7671 2
55.0704 67.9315 3.99119
59.2158 62.3549 3.97264
55.8032 64.9055 3.98068
56.322 62.0707 3.97373
65.2862 49.3972 3.96618
63.6792 53.2825 3.96504
62.3398 50.6244 3.96748
59.3247 59.5402 3.96554
61.0293 54.2875 3.96586
59.2656 56.9897 3.96319
59.1984 55.1565 3.96623
48.1009 68.5768 3.98666
50.9482 69.9313 3.99143
54.0858 71.1327 4
56.25 69.976 2
58.3339 68.6801 0
57.0574 8.33695 3.98676
60.3285 7.74928 4
58.9229 9.65989 2
62.2255 9.30602 2
70.5739 48.8135 0.0217502
71.7816 44.3529 0.0210968
68.9086 46.0143 0.0321789
69.8011 41.7899 0.0315695
72.4047 39.8024 0.0203513
75 37.5 0
72.4875 37.5123 2
70.0384 39.6577 2
69.427 43.907 2
67.5624 41.4941 2
68.2617 48.1056 2
66.6635 45.4316 2
70.1266 37.5222 3.9687
67.8044 39.5112 3.96914
67.1816 43.4643 3.96835
65.4415 41.1998 3.97452
66.0208 47.4081 3.96716
64.5234 44.8277 3.97173
72.4125 35.2244 0.0203216
71.8031 30.6766 0.0208306
69.8372 33.2694 0.0314069
68.9627 29.0394 0.032062
64.0165 10.9835 0
63.8879 14.3294 0.0214736
63.5083 17.4539 0.030649
67.6075 24.9135 0.0321319
66.1577 27.6439 0.032999
64.7244 23.8406 0.0339478
62.8856 20.3326 0.0352065
62.0155 22.9712 0.0328429
60.6823 11.0999 0.017189
57.6101 11.4551 0.0257099
70.0552 35.393 2
69.464 31.1511 2
67.6245 33.5956 2
66.7344 29.6313 2
62.3422 12.662 2
62.1931 15.7966 2
61.801 18.6989 2
65.4876 25.7099 2
64.0356 28.2798 2
61.1488 21.3716 2
62.7665 24.6649 2
60.2911 23.7732 2
59.2446 12.7932 2
56.4017 13.1397 2
55.8739 10.2404 2
67.8442 35.5501 3.96907
67.2314 31.6287 3.96815
65.5935 33.9376 3.97405
64.5519 30.2123 3.97192
63.4386 26.44 3.96978
62.0783 28.8145 3.97541
60.7714 14.2372 3.97128
60.8959 25.381 3.97225
60.6008 17.1466 3.96545
60.1671 19.8475 3.9629
59.5343 22.3061 3.96654
58.798 24.3793 3.9728
54.036 9.14196 3.97912
57.9034 14.3579 3.97063
54.7828 12.0297 3.97354
55.3035 14.6844 3.969
67.5034 50.1755 0.0326722
57.0245 66.7346 0.0102559
60.6669 63.9754 0.0160322
57.5561 63.6864 0.0234505
65.6977 54.1713 0.0319884
64.5001 51.3744 0.034516
60.7693 60.9277 0.0285568
60.6483 58.1452 0.0353782
62.8052 55.0592 0.0352112
60.3049 55.7671 0.0357761
55.0715 67.9312 2
59.2164 62.3571 2
55.8035 64.9061 2
56.3213 62.0731 2
65.2861 49.3968 2
63.6794 53.2822 2
62.3393 50.6239 2
59.3236 59.5412 2
61.0301 54.2875 2
59.2679 56.9899 2
59.2005 55.1564 2
53.0424 68.9994 3.99129
53.9655 66.0106 3.98344
57.8738 60.851 3.97125
54.681 63.1989 3.9763
55.2025 60.5889 3.97138
63.0773 48.634 3.96897
61.6632 52.5495 3.96664
60.1044 49.9752 3.96957
58.0007 58.24 3.96599
59.2445 53.9137 3.96742
58.0574 55.7778 3.96153
50.1076 67.8552 3.98618
47.4619 66.5763 3.98264
46.0547 69.1558 3.98697
48.101 68.5775 2
48.8021 70.7225 3.99157
50.9489 69.9311 2
51.8506 72.1454 4
54.0858 71.1327 2
56.25 69.9759 0
55.1021 7.1414 3.98911
58.3339 6.31992 4
57.0597 8.33849 2
60.3286 7.74926 2
58.92 9.65763 0.0145764
62.2254 9.30607 0
68.262 48.1062 0.0325712
69.4272 43.9074 0.0316929
66.6642 45.432 0.0321094
67.5626 41.4943 0.0310067
70.0385 39.6578 0.0313845
72.4881 37.5123 0.0207141
70.1261 37.5222 2
67.8036 39.5111 2
67.1823 43.464 2
65.4396 41.1995 2
66.021 47.4077 2
64.5215 44.8272 2
67.9045 37.5228 3.96914
65.6807 39.3655 3.9752
65.0555 43.0099 3.97323
63.5657 40.9115 3.97709
63.8369 46.6919 3.97022
62.605 44.1846 3.97584
70.0553 35.3928 0.0313173
69.4641 31.1506 0.031718
67.6246 33.5954 0.0314098
66.7346 29.6309 0.0326065
62.3398 12.6574 0.0193472
62.1941 15.7964 0.0304275
61.8011 18.6987 0.0355894
65.4877 25.7094 0.0334864
64.0373 28.2792 0.0289744
62.7675 24.6644 0.0314125
61.15 21.3712 0.0347775
60.2914 23.7724 0.0300728
59.243 12.7949 0.0275862
56.4007 13.1421 0.0284266
55.8724 10.2408 0.0230565
67.8435 35.5503 2
67.232 31.629 2
65.5911 33.9379 2
64.5499 30.2128 2
60.7712 14.2383 2
60.6001 17.1469 2
60.1681 19.8475 2
63.4374 26.4405 2
62.076 28.8153 2
59.5358 22.3067 2
60.8953 25.3818 2
58.7972 24.3806 2
57.9039 14.3558 2
55.3044 14.6836 2
54.0374 9.14044 2
54.7839 12.0269 2
65.7735 35.6725 3.97487
65.0709 32.1702 3.97264
64.1217 34.2653 3.97724
62.3997 30.6684 3.97639
61.4835 27.1132 3.97342
60.624 29.1884 3.97705
59.3013 15.6913 3.96655
59.1228 25.8556 3.97568
59.0962 18.385 3.96247
58.6366 20.9023 3.96333
58.1096 23.1554 3.96754
57.7648 24.7341 3.97424
52.1113 8.15744 3.98227
53.0551 11.0298 3.97446
56.6636 15.7769 3.96896
53.8024 13.7131 3.97225
54.3592 16.042 3.96879
55.0704 67.9315 0.00881008
65.2862 49.3972 0.0338211
55.8032 64.9055 0.0193173
59.2158 62.3549 0.0273585
56.322 62.0707 0.0262668
63.6792 53.2825 0.0349629
62.3398 50.6244 0.0325214
59.3247 59.5402 0.0344635
59.2656 56.9897 0.0368056
61.0293 54.2875 0.0341365
59.1984 55.1565 0.0337739
53.0432 68.9993 2
53.9659 66.0113 2
57.873 60.8533 2
54.6805 63.1997 2
55.202 60.5907 2
63.0764 48.6334 2
61.6637 52.5494 2
60.1045 49.9746 2
57.9998 58.2408 2
59.2471 53.9136 2
58.0552 55.7767 2
52.0689 66.998 3.98569
52.9519 64.2118 3.97995
56.6352 59.4645 3.96863
[...]
POINT_DATA 3012
SCALARS rho_c_phif_kappa float 4
LOOKUP_TABLE default
1000 0 1.00167 0.264535
1000 0 1.0014 0.264865
1000 0 1.00167 0.264464
1000 0 1.00167 0.264845
1000 0 1.00167 0.264585
1000 0 1.00167 0.264578
1009.43 1.05282e-08 1.00191 0.263629
1000 0 1.00139 0.264898
1000 0 1.0014 0.265052
1000 0 1.0014 0.26486
1000 0 1.00167 0.264334
1009.4 1.03321e-08 1.00206 0.263668
1000 0 1.00166 0.265081
1000 0 1.00167 0.265617
1000 0 1.00167 0.264369
1000 0 1.00167 0.265112
1000 0 1.00167 0.264398
1000 0 1.00167 0.26464
1009.39 1.05519e-08 1.00191 0.263707
1000 0 1.00139 0.26521
1000 0 1.00167 0.264945
1000 0 1.00167 0.264705
1009.38 1.06338e-08 1.0019 0.264246
1009.41 1.05716e-08 1.00191 0.263827
1000 0 1.00167 0.264681
1009.45 1.04845e-08 1.00191 0.263416
1009.95 1.14913e-08 1.00214 0.261944
1000 0 1.00139 0.264975
1000 0 1.00153 0.264808
1000 0 1.00153 0.264624
1000 0 1.00139 0.265082
1009.44 1.03613e-08 1.00206 0.26363
1000 0 1.00167 0.264641
1000 0 1.00167 0.264245
1009.42 1.05879e-08 1.00191 0.263671
1000 0 1.00139 0.265247
1009.39 1.04099e-08 1.00192 0.263743
1009.44 1.02925e-08 1.00206 0.263764
1009.98 1.1496e-08 1.00214 0.261992
1000 0 1.00139 0.265528
1000 0 1.00139 0.265204
1000 0 1.00153 0.265376
1000 0 1.00139 0.265229
1000 0 1.00167 0.265694
1009.33 1.06486e-08 1.00204 0.264317
1000 0 1.0014 0.265588
1009.39 1.06784e-08 1.00191 0.264051
1000 0 1.00167 0.265426
1000 0 1.00167 0.264693
1000 0 1.00168 0.2642
1009.43 1.05282e-08 1.00191 0.263787
1000 0 1.00153 0.265446
1000 0 1.00167 0.26525
1000 0 1.00168 0.264435
1000 0 1.00167 0.264886
1009.22 1.06545e-08 1.0019 0.264116
1009.46 1.05115e-08 1.00191 0.263571
1009.31 1.05925e-08 1.00191 0.263823
1009.96 1.14872e-08 1.00214 0.26183
1000 0 1.00139 0.265252
1000 0 1.00167 0.265013
1009.32 1.06271e-08 1.0019 0.264566
1009.36 1.0645e-08 1.0019 0.264381
1009.4 1.06091e-08 1.00191 0.264041
1009.92 1.14717e-08 1.00213 0.262144
1009.94 1.14834e-08 1.00213 0.261806
1000 0 1.00168 0.264866
1009.49 1.04467e-08 1.00192 0.263224
1009.97 1.15021e-08 1.00214 0.26193
1009.77 1.12977e-08 1.00211 0.259162
1000 0 1.0014 0.264794
1000 0 1.00139 0.265232
1000 0 1.0014 0.264792
1009.4 1.03321e-08 1.00206 0.263591
1000 0 1.0014 0.264918
1000 0 1.0014 0.264707
1009.33 1.06095e-08 1.00205 0.263771
1000 0 1.00153 0.264905
1009.4 1.04369e-08 1.00205 0.263698
1009.5 1.03204e-08 1.00199 0.26373
1009.97 1.14917e-08 1.00214 0.262037
1000 0 1.00139 0.265372
1009.7 1.0326e-08 1.00208 0.264181
1009.43 1.06458e-08 1.00205 0.263923
1009.41 1.0504e-08 1.00205 0.263819
1009.93 1.14782e-08 1.00213 0.261664
1009.51 1.0281e-08 1.00193 0.263818
1009.97 1.14913e-08 1.00214 0.26188
1010 1.15091e-08 1.00214 0.262108
1009.81 1.13518e-08 1.00212 0.260371
1000 0 1.00139 0.265643
1000 0 1.00139 0.265591
1000 0 1.0014 0.265108
1000 0 1.00139 0.265211
1000 0 1.00139 0.265226
1000 0 1.00153 0.265439
1009.11 1.06704e-08 1.00197 0.264254
1000 0 1.00153 0.265245
1009.24 1.07002e-08 1.00198 0.26417
1000 0 1.00139 0.265244
1009.3 1.06278e-08 1.00204 0.264381
1009.36 1.06669e-08 1.00191 0.264123
1009.9 1.14626e-08 1.00212 0.262293
1009.41 1.06751e-08 1.00191 0.26394
1009.91 1.14694e-08 1.00212 0.262176
1000 0 1.00166 0.265074
1000 0 1.00167 0.26562
1000 0 1.00168 0.264203
1000 0 1.00167 0.26508
1009.38 1.06338e-08 1.0019 0.263972
1009.41 1.05716e-08 1.00191 0.263818
1009.45 1.04845e-08 1.00191 0.263726
1009.95 1.14913e-08 1.00214 0.261728
1000 0 1.00139 0.26522
1000 0 1.00167 0.265339
1009.11 1.06494e-08 1.00197 0.264309
1009.2 1.06669e-08 1.0019 0.264255
1000 0 1.00154 0.264733
1009.53 1.04758e-08 1.00192 0.263509
1009.27 1.06291e-08 1.00191 0.263953
1009.94 1.14684e-08 1.00213 0.262079
1009.97 1.1497e-08 1.00214 0.261777
1009.95 1.14798e-08 1.00213 0.261819
1009.77 1.1298e-08 1.00211 0.259137
1009.28 1.06185e-08 1.00204 0.264457
1009.33 1.06417e-08 1.0019 0.264447
1009.9 1.1463e-08 1.00212 0.262388
1009.91 1.14682e-08 1.00213 0.262236
1009.93 1.14767e-08 1.00213 0.261897
1009.74 1.12546e-08 1.00211 0.259905
1000 0 1.0014 0.265291
1009.76 1.12798e-08 1.00211 0.259165
1009.54 1.04166e-08 1.00207 0.263458
1009.99 1.15172e-08 1.00214 0.2618
1009.79 1.13189e-08 1.00212 0.259296
1009.74 1.12495e-08 1.00211 0.2565
1009.66 1.03909e-08 1.00208 0.264088
1010.03 1.15551e-08 1.00214 0.263658
1000 0 1.0014 0.264914
1000 0 1.0014 0.264754
1009.42 1.05879e-08 1.00205 0.263819
1000 0 1.00139 0.265405
1009.44 1.02925e-08 1.00206 0.26361
1009.39 1.04099e-08 1.00205 0.263683
1009.98 1.1496e-08 1.00214 0.262074
1000 0 1.00139 0.26547
1009.7 1.03385e-08 1.00208 0.264319
1009.3 1.06663e-08 1.00198 0.263891
1009.36 1.05282e-08 1.00198 0.263758
1009.95 1.14747e-08 1.00213 0.261673
1009.55 1.03038e-08 1.00207 0.263776
1009.97 1.1487e-08 1.00214 0.26193
1009.99 1.15055e-08 1.00214 0.26216
1009.81 1.13528e-08 1.00212 0.260226
1009.6 1.02982e-08 1.00207 0.26393
1009.79 1.03537e-08 1.00208 0.26441
1010.04 1.15464e-08 1.00215 0.263986
1009.92 1.14737e-08 1.00213 0.261781
1009.95 1.14844e-08 1.00213 0.261696
1009.75 1.12746e-08 1.00211 0.25881
1010.02 1.15262e-08 1.00214 0.262792
1009.8 1.13273e-08 1.00212 0.259378
1009.83 1.13756e-08 1.00213 0.260616
1009.78 1.1296e-08 1.00212 0.258524
1000 0 1.0014 0.265666
1000 0 1.0014 0.26563
1000 0 1.00139 0.265583
1009.74 1.04034e-08 1.00208 0.264307
1000 0 1.0014 0.265433
1000 0 1.0014 0.265037
1000 0 1.0014 0.265166
1009.39 1.06784e-08 1.00205 0.264304
1009.33 1.06486e-08 1.00204 0.264417
1000 0 1.00139 0.265245
1000 0 1.00139 0.265239
1009.28 1.06482e-08 1.00204 0.264396
1009.35 1.06878e-08 1.00198 0.264243
1009.94 1.14589e-08 1.00212 0.262293
1009.26 1.06961e-08 1.00205 0.264135
1009.93 1.14658e-08 1.00212 0.262163
1009.29 1.06124e-08 1.00204 0.264412
1009.9 1.14586e-08 1.00212 0.262297
1009.91 1.14668e-08 1.00212 0.262279
1009.74 1.12464e-08 1.00211 0.26069
1009.92 1.14709e-08 1.00212 0.261988
1009.74 1.12485e-08 1.00211 0.260014
1000 0 1.00139 0.265222
1000 0 1.00167 0.265695
1009.32 1.06271e-08 1.00204 0.264347
1009.36 1.0645e-08 1.0019 0.264105
1000 0 1.0014 0.26503
1009.49 1.04467e-08 1.00192 0.263798
1009.4 1.06091e-08 1.00191 0.263864
1009.92 1.14717e-08 1.00213 0.262005
1009.94 1.14834e-08 1.00214 0.261833
1009.97 1.15021e-08 1.00214 0.261631
1009.77 1.12977e-08 1.00211 0.259108
1009.24 1.06389e-08 1.00204 0.264428
1009.33 1.06627e-08 1.0019 0.264322
1009.94 1.14594e-08 1.00212 0.262341
1009.93 1.14646e-08 1.00213 0.262252
1000 0 1.0014 0.265246
1009.59 1.04427e-08 1.002 0.263612
1009.98 1.15127e-08 1.00214 0.261821
1009.94 1.14734e-08 1.00213 0.261856
1009.74 1.12548e-08 1.00211 0.259737
1009.79 1.13194e-08 1.00212 0.259214
1009.76 1.12801e-08 1.00211 0.259213
1009.74 1.12496e-08 1.00211 0.256544
1009.69 1.04109e-08 1.00208 0.263959
1010.03 1.15515e-08 1.00214 0.263666
1009.9 1.14597e-08 1.00212 0.262341
1009.91 1.14654e-08 1.00213 0.262369
1009.74 1.12475e-08 1.00211 0.260833
1009.74 1.12484e-08 1.00211 0.259913
1009.75 1.12654e-08 1.00211 0.259317
1009.71 1.12175e-08 1.0021 0.25766
1009.6 1.03938e-08 1.00207 0.263794
1009.73 1.12356e-08 1.00211 0.256529
1010.01 1.15358e-08 1.00214 0.262311
1009.81 1.13442e-08 1.00212 0.259756
1009.75 1.1267e-08 1.00212 0.256662
1009.74 1.12452e-08 1.00211 0.254839
1010.03 1.15487e-08 1.00214 0.263205
1010.03 1.15602e-08 1.00214 0.26428
1009.85 1.14175e-08 1.00213 0.2627
1009.43 1.06458e-08 1.00205 0.263983
1000 0 1.00139 0.265548
1009.7 1.0326e-08 1.00208 0.264469
1009.41 1.0504e-08 1.00205 0.263715
1009.93 1.14782e-08 1.00213 0.261689
1009.51 1.0281e-08 1.00207 0.263934
1010 1.15091e-08 1.00214 0.262205
1009.97 1.14913e-08 1.00214 0.261973
1009.81 1.13518e-08 1.00212 0.260093
1009.62 1.03153e-08 1.00207 0.264085
1009.79 1.03643e-08 1.00208 0.264479
1010.03 1.15433e-08 1.00215 0.264042
1009.94 1.14704e-08 1.00213 0.261775
1009.96 1.14806e-08 1.00213 0.261723
1009.75 1.12751e-08 1.00211 0.258832
1010.01 1.1523e-08 1.00214 0.26281
1009.8 1.13278e-08 1.00212 0.259519
1009.83 1.13763e-08 1.00213 0.260639
1009.78 1.12962e-08 1.00212 0.258168
1009.87 1.03828e-08 1.00209 0.264472
1010.03 1.15353e-08 1.00214 0.26353
1010.04 1.15505e-08 1.00215 0.264626
1009.86 1.14317e-08 1.00213 0.263028
1009.74 1.12598e-08 1.00211 0.259004
1009.77 1.13e-08 1.00211 0.258915
1009.72 1.12071e-08 1.00211 0.25578
1009.85 1.1402e-08 1.00213 0.261525
1009.76 1.12644e-08 1.00211 0.256023
1009.8 1.13177e-08 1.00212 0.258878
1009.77 1.12782e-08 1.00212 0.256825
1010.01 1.15619e-08 1.00214 0.265223
1010.02 1.04394e-08 1.0021 0.264358
1000 0 1.0014 0.265664
1000 0 1.0014 0.265639
1000 0 1.0014 0.265607
1009.83 1.04321e-08 1.00209 0.264426
1000 0 1.0014 0.265515
1009.76 1.04178e-08 1.00208 0.264183
1000 0 1.0014 0.265365
1009.41 1.06751e-08 1.00205 0.264158
1009.36 1.06669e-08 1.00204 0.264388
1009.91 1.14694e-08 1.00212 0.262149
1009.9 1.14626e-08 1.00212 0.262294
1009.3 1.06278e-08 1.00204 0.264424
1000 0 1.00139 0.265244
1009.02 1.06351e-08 1.00204 0.264416
1009.9 1.14552e-08 1.00212 0.262298
1009.91 1.14633e-08 1.00212 0.262267
1009.73 1.12465e-08 1.00211 0.260682
1009.94 1.14675e-08 1.00212 0.26197
1009.74 1.12487e-08 1.00211 0.260032
1009.9 1.14576e-08 1.00212 0.262315
1009.73 1.12476e-08 1.0021 0.260845
1009.74 1.12483e-08 1.00211 0.260465
1009.7 1.11975e-08 1.0021 0.259048
1009.74 1.1251e-08 1.00211 0.259471
1009.71 1.12129e-08 1.0021 0.258005
1009.28 1.06185e-08 1.00204 0.264401
1009.33 1.06417e-08 1.0019 0.264177
1009.9 1.1463e-08 1.00212 0.262294
1009.91 1.14682e-08 1.00213 0.262256
1000 0 1.0014 0.265188
1009.54 1.04166e-08 1.00193 0.263563
1009.99 1.15172e-08 1.00215 0.261829
1009.93 1.14767e-08 1.00213 0.261812
1009.74 1.12546e-08 1.00211 0.259559
1009.76 1.12798e-08 1.00212 0.259263
1009.79 1.13189e-08 1.00212 0.25911
1009.74 1.12495e-08 1.00211 0.25658
1009.66 1.03909e-08 1.00208 0.263844
1010.03 1.15551e-08 1.00214 0.263664
1009.9 1.14563e-08 1.00212 0.262312
1009.91 1.14621e-08 1.00213 0.262333
1009.74 1.12476e-08 1.00211 0.260788
1009.74 1.12486e-08 1.00211 0.260063
1009.63 1.04176e-08 1.00207 0.263689
1010 1.15312e-08 1.00214 0.262244
1009.81 1.13452e-08 1.00212 0.259818
1009.75 1.12656e-08 1.00211 0.259401
1009.71 1.12174e-08 1.0021 0.257439
1009.75 1.12673e-08 1.00211 0.256373
1009.73 1.12356e-08 1.00211 0.25654
1009.74 1.12451e-08 1.00211 0.254714
1010.02 1.15457e-08 1.00214 0.263288
1009.85 1.14174e-08 1.00213 0.262817
1010.03 1.15568e-08 1.00214 0.264196
1009.74 1.12471e-08 1.00211 0.260941
1009.74 1.12486e-08 1.00211 0.260468
1009.71 1.1208e-08 1.0021 0.259353
1009.71 1.12102e-08 1.0021 0.257831
1009.72 1.12238e-08 1.00211 0.256655
1009.71 1.12136e-08 1.0021 0.255223
1010.02 1.15447e-08 1.00214 0.262848
1009.72 1.12299e-08 1.00211 0.254255
1009.83 1.13736e-08 1.00213 0.260922
1009.77 1.12901e-08 1.00212 0.256354
1009.75 1.12545e-08 1.00211 0.254285
1009.73 1.12468e-08 1.00211 0.252965
1010.02 1.15642e-08 1.00214 0.264739
1009.85 1.14093e-08 1.00213 0.262515
1009.85 1.14231e-08 1.00213 0.263161
1009.84 1.1371e-08 1.00213 0.26208
1009.92 1.14737e-08 1.00213 0.261773
1009.79 1.03537e-08 1.00208 0.264531
1009.6 1.02982e-08 1.00207 0.264267
1010.04 1.15464e-08 1.00215 0.264092
1009.95 1.14844e-08 1.00213 0.261754
1009.75 1.12746e-08 1.00211 0.258851
1010.02 1.15262e-08 1.00214 0.262825
1009.83 1.13756e-08 1.00213 0.26064
1009.8 1.13273e-08 1.00212 0.259662
1009.78 1.1296e-08 1.00212 0.257828
1009.87 1.03916e-08 1.00209 0.264492
1010.02 1.15324e-08 1.00214 0.263504
1010.03 1.15482e-08 1.00215 0.264735
1009.86 1.14321e-08 1.00213 0.263009
1009.74 1.12601e-08 1.00211 0.259019
1009.77 1.13007e-08 1.00211 0.258962
1009.72 1.1207e-08 1.00211 0.255777
1009.85 1.14031e-08 1.00213 0.261597
1009.76 1.12648e-08 1.00212 0.256299
1009.8 1.13175e-08 1.00212 0.258708
1009.77 1.12787e-08 1.00212 0.256879
1009.94 1.04086e-08 1.00209 0.264438
1010.03 1.15523e-08 1.00215 0.265136
1009.86 1.14206e-08 1.00213 0.26258
1009.86 1.14357e-08 1.00213 0.263679
1009.86 1.13851e-08 1.00213 0.261982
1009.71 1.11809e-08 1.0021 0.256128
1009.74 1.12367e-08 1.00211 0.255411
1009.73 1.13188e-08 1.00211 0.253209
1009.82 1.13479e-08 1.00213 0.259386
1009.75 1.12619e-08 1.00211 0.253172
1009.78 1.12703e-08 1.00212 0.256548
1010.02 1.15571e-08 1.00214 0.265277
1009.84 1.14254e-08 1.00213 0.265369
1010.01 1.15673e-08 1.00214 0.265192
1010.01 1.15605e-08 1.00214 0.265228
1010.08 1.04712e-08 1.00195 0.264653
1010.01 1.0448e-08 1.00202 0.264611
1000 0 1.0017 0.264969
1000 0 1.0014 0.265649
1000 0 1.0014 0.265624
1009.93 1.04736e-08 1.00209 0.264511
1000 0 1.0014 0.265586
1009.84 1.04452e-08 1.00209 0.264349
1000 0 1.0014 0.265481
1009.74 1.04034e-08 1.00208 0.264078
1000 0 1.0014 0.265316
1009.92 1.14709e-08 1.00212 0.261955
1009.91 1.14668e-08 1.00212 0.262258
1009.74 1.12485e-08 1.00211 0.260038
1009.74 1.12464e-08 1.00211 0.260675
1009.9 1.14586e-08 1.00212 0.262296
1009.29 1.06124e-08 1.00204 0.264396
1009.93 1.14538e-08 1.00212 0.262314
1009.74 1.12476e-08 1.0021 0.260838
1009.74 1.12485e-08 1.00211 0.260432
1009.7 1.1197e-08 1.0021 0.258932
1009.74 1.12513e-08 1.00211 0.259468
1009.71 1.12127e-08 1.0021 0.258031
1009.74 1.12498e-08 1.0021 0.2609
1009.7 1.11719e-08 1.0021 0.259473
1009.71 1.12009e-08 1.0021 0.258496
1009.71 1.12431e-08 1.0021 0.257906
1009.71 1.12046e-08 1.0021 0.256995
1009.7 1.12035e-08 1.0021 0.255381
1009.9 1.14597e-08 1.00212 0.262289
1009.91 1.14654e-08 1.00213 0.262306
1009.74 1.12475e-08 1.00211 0.26073
1009.74 1.12484e-08 1.00211 0.260218
1009.6 1.03938e-08 1.00207 0.263587
1010.01 1.15358e-08 1.00214 0.26218
1009.81 1.13442e-08 1.00212 0.259908
1009.75 1.12654e-08 1.00211 0.259494
1009.71 1.12175e-08 1.0021 0.257217
1009.73 1.12356e-08 1.00211 0.256551
1009.75 1.1267e-08 1.00211 0.256116
1009.74 1.12452e-08 1.00211 0.254602
1010.03 1.15487e-08 1.00214 0.263366
1009.85 1.14175e-08 1.00213 0.262889
1010.03 1.15602e-08 1.00214 0.264134
1009.74 1.1247e-08 1.00211 0.260908
1009.74 1.12488e-08 1.00211 0.260412
1009.71 1.12075e-08 1.0021 0.259245
1009.71 1.12099e-08 1.0021 0.257936
1010.01 1.15411e-08 1.00214 0.262862
1009.83 1.13733e-08 1.00213 0.260869
1009.78 1.12912e-08 1.00212 0.256589
1009.72 1.12236e-08 1.00211 0.256827
1009.71 1.12131e-08 1.0021 0.255082
1009.75 1.12543e-08 1.00211 0.254061
1009.72 1.12296e-08 1.00211 0.254283
1009.73 1.12466e-08 1.00211 0.253018
1009.85 1.14109e-08 1.00213 0.262469
1009.84 1.13714e-08 1.00213 0.262023
1010.02 1.15616e-08 1.00214 0.264699
1009.85 1.14232e-08 1.00213 0.263308
1009.7 1.11832e-08 1.0021 0.259543
1009.7 1.1199e-08 1.0021 0.258714
1009.7 1.12163e-08 1.0021 0.25817
1009.7 1.1216e-08 1.0021 0.255122
1009.72 1.12227e-08 1.0021 0.254643
1009.71 1.1218e-08 1.0021 0.254109
1009.84 1.13962e-08 1.00213 0.261994
1009.72 1.12468e-08 1.0021 0.252236
1009.8 1.13212e-08 1.00212 0.25802
1009.76 1.12605e-08 1.00212 0.253399
1009.75 1.12906e-08 1.00211 0.252636
1009.71 1.12079e-08 1.00211 0.252608
1010.02 1.15685e-08 1.00214 0.265031
1009.85 1.14247e-08 1.00213 0.263713
1009.83 1.13602e-08 1.00213 0.261653
1009.86 1.13849e-08 1.00213 0.262197
1009.85 1.13705e-08 1.00213 0.261412
1009.87 1.03828e-08 1.00209 0.264513
1009.74 1.12598e-08 1.00211 0.259038
1010.04 1.15505e-08 1.00215 0.264861
1010.03 1.15353e-08 1.00214 0.263461
1009.86 1.14317e-08 1.00213 0.262992
1009.77 1.13e-08 1.00211 0.258999
1009.72 1.12071e-08 1.00211 0.255774
1009.85 1.1402e-08 1.00213 0.261685
1009.8 1.13177e-08 1.00212 0.258453
1009.76 1.12644e-08 1.00212 0.256567
1009.77 1.12782e-08 1.00212 0.256907
1009.94 1.04168e-08 1.00209 0.264428
1010.03 1.15506e-08 1.00214 0.265213
1009.86 1.14219e-08 1.00213 0.262588
1009.86 1.1436e-08 1.00213 0.263745
1009.86 1.13853e-08 1.00213 0.261961
1009.71 1.11813e-08 1.0021 0.25608
1009.74 1.12362e-08 1.00211 0.255412
1009.73 1.13194e-08 1.00211 0.253141
1009.82 1.13483e-08 1.00213 0.259502
1009.75 1.12609e-08 1.00211 0.253455
1009.78 1.12707e-08 1.00212 0.256569
1010.02 1.15541e-08 1.00214 0.26529
1009.86 1.14334e-08 1.00213 0.264534
1009.84 1.13712e-08 1.00213 0.260863
1009.87 1.13992e-08 1.00214 0.262611
1009.86 1.13751e-08 1.00213 0.261482
1009.73 1.14069e-08 1.0021 0.254464
1009.73 1.12112e-08 1.00211 0.252117
1009.67 1.10375e-08 1.0021 0.250699
1009.81 1.12904e-08 1.00213 0.256796
1009.77 1.13528e-08 1.00211 0.253106
1010.02 1.15559e-08 1.00214 0.265293
1009.85 1.14268e-08 1.00213 0.265351
1009.85 1.14258e-08 1.00213 0.265354
1009.87 1.13952e-08 1.00214 0.264645
1009.84 1.14246e-08 1.00213 0.265317
1010 1.15735e-08 1.00214 0.265192
1010.01 1.15658e-08 1.00214 0.265189
1010.15 1.05127e-08 1.00196 0.264635
1010.01 1.15619e-08 1.00214 0.265234
1010.08 1.04787e-08 1.00195 0.264785
1000 0 1.0017 0.264949
1010.02 1.04394e-08 1.00195 0.264769
1000 0 1.00155 0.265114
1000 0 1.0014 0.265637
1010.02 1.05148e-08 1.0021 0.264569
1009.93 1.04824e-08 1.00209 0.264445
1000 0 1.0014 0.265609
1000 0 1.0014 0.265565
1009.83 1.04321e-08 1.00209 0.264259
1000 0 1.0014 0.265416
1009.74 1.1251e-08 1.00211 0.25946
1009.74 1.12483e-08 1.00211 0.260413
1009.71 1.12129e-08 1.0021 0.258065
1009.7 1.11975e-08 1.0021 0.258815
1009.73 1.12476e-08 1.0021 0.260832
1009.9 1.14576e-08 1.00212 0.262308
1009.73 1.12501e-08 1.0021 0.260903
1009.7 1.11717e-08 1.0021 0.259515
1009.71 1.12006e-08 1.0021 0.258496
1009.71 1.12433e-08 1.0021 0.257765
1009.71 1.12044e-08 1.0021 0.256966
1009.7 1.12033e-08 1.0021 0.25546
1009.7 1.11527e-08 1.0021 0.25974
1009.72 1.1307e-08 1.0021 0.258596
1009.71 1.12636e-08 1.0021 0.256466
1009.71 1.14045e-08 1.0021 0.256915
1009.72 1.12624e-08 1.0021 0.255522
1009.73 1.13805e-08 1.0021 0.25396
1009.74 1.12471e-08 1.0021 0.260875
1009.74 1.12486e-08 1.00211 0.260337
1009.71 1.1208e-08 1.0021 0.259143
1009.71 1.12102e-08 1.0021 0.258047
1010.02 1.15447e-08 1.00214 0.262869
1009.83 1.13736e-08 1.00213 0.260812
1009.77 1.12901e-08 1.00212 0.256814
1009.72 1.12238e-08 1.00211 0.256998
1009.71 1.12136e-08 1.0021 0.25495
1009.72 1.12299e-08 1.00211 0.254312
1009.75 1.12545e-08 1.00211 0.253785
1009.73 1.12468e-08 1.00211 0.253055
1009.85 1.14093e-08 1.00213 0.262443
1009.84 1.1371e-08 1.00213 0.261996
1010.02 1.15642e-08 1.00214 0.264648
1009.85 1.14231e-08 1.00213 0.263396
1009.7 1.1183e-08 1.0021 0.259547
1009.7 1.1199e-08 1.0021 0.258702
1009.7 1.12167e-08 1.0021 0.258139
1009.7 1.12164e-08 1.0021 0.255343
1009.85 1.13975e-08 1.00213 0.261927
1009.8 1.13209e-08 1.00212 0.258296
1009.76 1.12608e-08 1.00212 0.25324
1009.71 1.12229e-08 1.0021 0.2548
1009.71 1.12186e-08 1.0021 0.254037
1009.75 1.12906e-08 1.00211 0.252503
1009.72 1.1247e-08 1.0021 0.252246
1009.71 1.12078e-08 1.00211 0.252611
1009.83 1.13605e-08 1.00213 0.261608
1009.85 1.13691e-08 1.00213 0.261334
1009.86 1.13851e-08 1.00213 0.262229
1010.01 1.15663e-08 1.00214 0.264969
1009.85 1.14247e-08 1.00213 0.263744
1009.72 1.13249e-08 1.0021 0.258411
1009.71 1.12358e-08 1.0021 0.257017
1009.69 1.1196e-08 1.0021 0.253359
1009.7 1.12255e-08 1.0021 0.253119
1009.83 1.13472e-08 1.00213 0.260536
1009.7 1.11773e-08 1.0021 0.250103
1009.79 1.12811e-08 1.00212 0.25518
1009.77 1.13575e-08 1.00211 0.25059
1009.73 1.12456e-08 1.00211 0.251383
1010.01 1.15747e-08 1.00214 0.265149
1009.85 1.14272e-08 1.00213 0.264161
1009.86 1.13831e-08 1.00213 0.262911
1009.83 1.13509e-08 1.00213 0.2607
1009.86 1.13818e-08 1.00213 0.261385
1009.84 1.13738e-08 1.00213 0.260243
1009.94 1.04086e-08 1.00209 0.264393
1010.03 1.15523e-08 1.00214 0.265291
1009.71 1.11809e-08 1.0021 0.256028
1009.86 1.14357e-08 1.00213 0.263807
1009.86 1.14206e-08 1.00213 0.262591
1009.86 1.13851e-08 1.00213 0.26194
1009.74 1.12367e-08 1.00211 0.255418
1009.73 1.13188e-08 1.00211 0.253084
1009.82 1.13479e-08 1.00213 0.259624
1009.78 1.12703e-08 1.00212 0.256602
1009.75 1.12619e-08 1.00211 0.253727
1010.02 1.15524e-08 1.00214 0.265328
1009.86 1.14336e-08 1.00213 0.264588
1009.84 1.13718e-08 1.00213 0.260966
1009.87 1.13991e-08 1.00213 0.262676
1009.86 1.13758e-08 1.00213 0.261329
1009.73 1.14039e-08 1.0021 0.254406
1009.73 1.12148e-08 1.00211 0.252163
1009.67 1.10338e-08 1.0021 0.250631
1009.81 1.12913e-08 1.00213 0.256686
1009.77 1.13569e-08 1.00212 0.253028
1009.85 1.14297e-08 1.00213 0.265095
1009.87 1.14009e-08 1.00213 0.263262