# vtk DataFile Version 2.0
Wound Healing Simulation
ASCII
DATASET UNSTRUCTURED_GRID
POINTS 3012 float
69.9759 18.75 4
67.2507 60.3285 4
69.976 18.75 2
73.0099 25.446 4
71.1327 20.9142 4
68.6801 16.6661 4
67.8277 19.9238 3.98828
67.2507 60.3286 2
71.1327 54.0858 4
68.6801 58.3339 4
65.6939 62.2254 4
65.3141 59.0048 3.9895
74.6784 42.3946 4
73.7221 47.2057 4
69.9759 18.75 0
73.0099 25.446 2
68.6801 16.6661 2
71.1327 20.9142 2
67.8282 19.9246 2
74.6792 32.6053 4
73.7222 27.7943 4
72.1454 23.1494 4
70.6162 26.2224 3.98713
68.8881 21.9574 3.988
67.2507 14.6715 4
66.6391 17.9683 3.98891
65.8039 21.0199 3.98375
67.2507 60.3285 0
71.1327 54.0858 2
68.6801 58.3339 2
65.694 62.2255 2
65.3143 59.0047 2
72.1454 51.8506 4
69.9759 56.25 4
68.839 53.1135 3.98782
64.0165 64.0165 4
66.6128 57.1367 3.98906
63.8874 60.7695 3.99065
63.5058 57.7801 3.98499
60.3285 67.2507 4
74.6792 42.3947 2
73.7222 47.2057 2
74.9194 39.9526 4
74.2788 44.8158 4
72.1694 42.0852 3.98565
73.0099 49.554 4
71.2513 46.5968 3.98706
73.0099 25.446 0
71.1327 20.9142 0
68.6801 16.6661 0
67.8277 19.9238 0.0117161
74.6792 32.6053 2
73.7222 27.7943 2
67.2508 14.6715 2
72.1455 23.1494 2
70.6163 26.2233 2
66.6395 17.9686 2
68.8885 21.9585 2
65.8042 21.0194 2
74.9197 35.0474 4
74.2794 30.1841 4
72.186 32.9434 3.98586
71.2799 28.4326 3.98682
69.8179 24.0604 3.98765
68.3523 26.9512 3.98019
66.7694 22.9301 3.98287
65.694 12.7746 4
65.3254 16.0993 3.98989
64.7201 19.1871 3.98471
63.898 22.0262 3.98114
71.1327 54.0858 0
65.6939 62.2254 0
68.6801 58.3339 0
65.3141 59.0048 0.0105037
72.1455 51.8506 2
69.9759 56.25 2
68.8393 53.1124 2
64.0165 64.0165 2
66.6132 57.1364 2
63.8875 60.7694 2
63.5058 57.7806 2
62.2254 65.694 4
58.8945 65.4164 3.99262
69.7715 50.988 3.98748
67.7862 55.1692 3.9885
66.6569 52.2121 3.98269
62.3373 62.4304 3.99166
64.6675 56.0385 3.98505
62.2067 59.4135 3.98527
61.8319 56.6937 3.98278
58.3339 68.6801 4
60.3285 67.2508 2
73.7221 47.2057 0
74.6784 42.3946 0
74.9197 39.9526 2
74.2794 44.8159 2
72.1694 42.0857 2
73.0099 49.554 2
71.2512 46.5966 2
75 37.5 4
72.4063 39.8019 3.98468
71.7841 44.3521 3.98655
69.8081 41.7889 3.97869
70.5775 48.812 3.98734
68.9179 46.0143 3.97964
74.6792 32.6053 0
73.7222 27.7943 0
67.2507 14.6715 0
72.1454 23.1494 0
70.6162 26.2224 0.0128723
68.8881 21.9574 0.0120004
66.6391 17.9683 0.0110927
65.8039 21.0199 0.0162498
74.9197 35.0474 2
74.2794 30.1841 2
72.186 32.9435 2
71.28 28.4331 2
65.694 12.7745 2
65.3257 16.0992 2
69.8181 24.0616 2
68.3523 26.9512 2
64.7204 19.1863 2
66.7695 22.9297 2
63.8983 22.0255 2
72.4141 35.224 3.9847
71.8054 30.6769 3.9866
69.8438 33.2686 3.97881
68.9711 29.0384 3.9795
67.6176 24.9105 3.98158
66.2029 27.6321 3.97747
64.0165 10.9835 4
64.7674 23.8234 3.9803
63.8914 14.3233 3.99085
63.5183 17.4373 3.98568
62.9173 20.3085 3.98194
62.1072 22.9307 3.97982
60.6846 11.0948 3.99205
57.613 11.4393 3.98719
72.1454 51.8506 0
69.9759 56.25 0
68.839 53.1135 0.0121762
64.0165 64.0165 0
63.8874 60.7695 0.00935356
66.6128 57.1367 0.0109413
63.5058 57.7801 0.0150099
62.2255 65.694 2
58.8946 65.4165 2
69.7716 50.987 2
67.7866 55.1685 2
66.6569 52.2125 2
62.3375 62.4303 2
64.6676 56.0391 2
62.2067 59.4138 2
61.832 56.6942 2
60.6694 63.9795 3.99218
57.025 66.737 3.99308
57.5585 63.6977 3.98747
67.5144 50.178 3.9814
65.7094 54.1783 3.98409
64.5494 51.3916 3.97968
60.7755 60.9463 3.98602
62.831 55.079 3.98302
60.6649 58.1723 3.9828
60.3394 55.8013 3.98187
56.25 69.9759 4
58.3339 68.6801 2
60.3285 67.2507 0
58.9216 9.6532 3.99251
62.2254 9.30607 4
73.0099 49.554 0
74.2788 44.8158 0
71.2513 46.5968 0.0129369
72.1694 42.0852 0.0143469
74.9194 39.9526 0
75 37.5 2
72.4063 39.8024 2
71.7841 44.3523 2
69.8081 41.789 2
70.5775 48.8114 2
68.9177 46.0143 2
72.4895 37.5119 3.98422
70.0441 39.6567 3.9775
69.4353 43.9067 3.97933
67.6039 41.4977 3.97579
68.2722 48.1074 3.9804
66.7185 45.4412 3.97702
74.9197 35.0474 0
74.2794 30.1841 0
72.186 32.9434 0.0141369
71.2799 28.4326 0.0131795
65.694 12.7746 0
65.3254 16.0993 0.0101105
69.8179 24.0604 0.012351
68.3523 26.9512 0.0198141
66.7694 22.9301 0.0171332
64.7201 19.1871 0.0152908
63.898 22.0262 0.0188608
72.4141 35.2241 2
71.8054 30.6771 2
69.8439 33.2688 2
68.971 29.0385 2
64.0165 10.9835 2
63.8916 14.3233 2
63.5186 17.4366 2
67.6176 24.9103 2
66.2029 27.6318 2
62.9177 20.3078 2
64.7676 23.8228 2
62.1075 22.9302 2
60.6848 11.0948 2
57.613 11.4387 2
70.0607 35.392 3.97776
69.4716 31.1498 3.97936
67.6616 33.59 3.97587
66.7798 29.6211 3.97665
65.5339 25.6949 3.97886
64.1571 28.2503 3.97661
62.3426 12.6518 3.99153
62.8711 24.6272 3.9792
62.2023 15.7751 3.98591
61.8221 18.6712 3.98314
61.231 21.3266 3.98015
60.4428 23.7121 3.97952
59.2475 12.7703 3.98622
55.8748 10.2261 3.9885
56.4066 13.1016 3.98416
69.7715 50.988 0.0125158
62.2254 65.694 0
58.8945 65.4164 0.00738433
67.7862 55.1692 0.0114965
66.6569 52.2121 0.0173145
62.3373 62.4304 0.00833619
62.2067 59.4135 0.0147267
64.6675 56.0385 0.0149464
61.8319 56.6937 0.0172182
60.6696 63.9795 2
57.0252 66.7371 2
57.5584 63.6982 2
67.5143 50.1782 2
65.7096 54.1788 2
64.5494 51.3923 2
60.7755 60.9469 2
62.8311 55.0797 2
60.6649 58.1728 2
60.3395 55.8018 2
55.0704 67.9339 3.99339
59.2207 62.3735 3.98651
55.8046 64.9148 3.98864
56.3284 62.0987 3.98451
65.3427 49.4124 3.9784
63.718 53.3013 3.98144
62.4573 50.6615 3.97818
59.3376 59.5688 3.98391
61.091 54.3234 3.98215
59.2978 57.0282 3.98107
59.2552 55.2002 3.98216
48.1027 68.5819 3.99026
50.9482 69.9332 3.99386
54.0858 71.1327 4
56.25 69.976 2
58.3339 68.6801 0
57.0587 8.33312 3.99302
60.3285 7.74928 4
58.9218 9.6531 2
62.2255 9.30602 2
70.5775 48.812 0.0126559
71.7841 44.3521 0.0134522
68.9179 46.0143 0.0203609
69.8081 41.7889 0.0213137
72.4063 39.8019 0.015316
75 37.5 0
72.4895 37.5122 2
70.0442 39.6568 2
69.4352 43.9068 2
67.604 41.4979 2
68.2721 48.1075 2
66.7184 45.4415 2
70.1317 37.5212 3.97705
67.8393 39.512 3.97463
67.2314 43.4706 3.97657
65.5648 41.2112 3.97494
66.0786 47.4204 3.9777
64.6637 44.8517 3.97613
72.4141 35.224 0.0152972
71.8054 30.6769 0.0133986
69.8438 33.2686 0.0211878
68.9711 29.0384 0.0204963
64.0165 10.9835 0
63.8914 14.3233 0.00915187
63.5183 17.4373 0.0143203
67.6176 24.9105 0.0184163
66.2029 27.6321 0.0225291
64.7674 23.8234 0.0196955
62.9173 20.3085 0.0180593
62.1072 22.9307 0.0201766
60.6846 11.0948 0.00794909
57.613 11.4393 0.012812
70.0609 35.3922 2
69.4717 31.1499 2
67.6618 33.5898 2
66.7798 29.6208 2
62.3427 12.6518 2
62.2024 15.7745 2
61.8225 18.6705 2
65.5339 25.6945 2
64.1572 28.25 2
61.2315 21.3261 2
62.8713 24.6268 2
60.4432 23.7117 2
59.2474 12.7698 2
56.4066 13.1009 2
55.8748 10.2254 2
67.8754 35.5469 3.975
67.2725 31.621 3.97661
65.7059 33.925 3.97476
64.6727 30.1881 3.97549
63.5508 26.4068 3.97771
62.2703 28.77 3.97706
60.7772 14.2146 3.98586
61.062 25.3249 3.97896
60.6182 17.1145 3.98401
60.2334 19.7999 3.98155
59.6769 22.241 3.97889
58.9975 24.3029 3.97974
54.0377 9.12963 3.9892
57.9123 14.32 3.98408
54.7875 12.001 3.98513
55.3144 14.6321 3.98294
67.5144 50.178 0.0186004
57.025 66.737 0.00691724
60.6694 63.9795 0.00782181
57.5585 63.6977 0.0125252
65.7094 54.1783 0.0159094
64.5494 51.3916 0.0203187
60.7755 60.9463 0.0139832
60.6649 58.1723 0.0172039
62.831 55.079 0.0169768
60.3394 55.8013 0.0181343
55.0706 67.9339 2
59.2207 62.3741 2
55.8045 64.9153 2
56.3283 62.0992 2
65.3426 49.413 2
63.7181 53.302 2
62.4573 50.6621 2
59.3376 59.5695 2
61.0911 54.324 2
59.2978 57.0287 2
59.2553 55.2006 2
53.0423 69.0016 3.99364
53.9667 66.0168 3.9893
57.8833 60.8803 3.9842
54.6843 63.2144 3.98543
55.2137 60.6267 3.98306
63.2086 48.668 3.97706
61.7571 52.5873 3.9801
60.2924 50.0317 3.97738
58.0239 58.2752 3.98217
59.3428 53.9639 3.98136
58.1373 55.8304 3.9794
50.1092 67.8599 3.99002
47.4632 66.5863 3.98802
46.0565 69.1615 3.99052
48.1028 68.5823 2
48.8024 70.7244 3.99406
50.9484 69.9333 2
51.8506 72.1454 4
54.0858 71.1327 2
56.25 69.9759 0
55.1029 7.13774 3.99331
58.3339 6.31992 4
57.0589 8.33295 2
60.3286 7.74926 2
58.9216 9.6532 0.00749443
62.2254 9.30607 0
68.2722 48.1074 0.0195965
69.4353 43.9067 0.0206661
66.7185 45.4412 0.0229809
67.6039 41.4977 0.0242084
70.0441 39.6567 0.0224972
72.4895 37.5119 0.0157771
70.1318 37.5213 2
67.8395 39.5122 2
67.2314 43.4708 2
65.565 41.2115 2
66.0785 47.4209 2
64.6636 44.8521 2
67.9349 37.5215 3.97396
65.7944 39.3706 3.97383
65.1863 43.0276 3.97564
63.7667 40.9321 3.97476
63.9785 46.7216 3.97662
62.821 44.2216 3.97678
70.0607 35.392 0.0222355
69.4716 31.1498 0.0206371
67.6616 33.59 0.0241261
66.7798 29.6211 0.0233453
62.3426 12.6518 0.00847378
62.2023 15.7751 0.0140854
61.8221 18.6712 0.0168619
65.5339 25.6949 0.0211412
64.1571 28.2503 0.0233857
62.8711 24.6272 0.0207976
61.231 21.3266 0.0198546
60.4428 23.7121 0.0204841
59.2475 12.7703 0.0137841
56.4066 13.1016 0.0158374
55.8748 10.2261 0.011504
67.8756 35.5469 2
67.2726 31.6208 2
65.7062 33.9248 2
64.6728 30.1877 2
60.7772 14.214 2
60.6184 17.1138 2
60.2339 19.7993 2
63.5509 26.4064 2
62.2704 28.7696 2
59.6774 22.2405 2
61.0622 25.3245 2
58.9978 24.3026 2
57.9123 14.3194 2
55.3143 14.6314 2
54.0377 9.12905 2
54.7875 12.0001 2
65.8831 35.6655 3.97399
65.1957 32.1508 3.97539
64.2939 34.2471 3.97472
62.6069 30.6293 3.97535
61.6663 27.0622 3.97726
60.8652 29.1305 3.97917
59.3138 15.6566 3.98419
59.3504 25.7813 3.98022
59.1306 18.3396 3.98305
58.7529 20.8354 3.97988
58.3023 23.0731 3.9777
57.9883 24.6464 3.98032
52.1124 8.14842 3.9896
53.0583 11.0075 3.98612
56.6791 15.7281 3.98329
53.8107 13.6672 3.98337
54.3786 15.9829 3.98275
55.0704 67.9339 0.0066126
65.3427 49.4124 0.0216025
55.8046 64.9148 0.0113636
59.2207 62.3735 0.0134942
56.3284 62.0987 0.0154902
63.718 53.3013 0.0185624
62.4573 50.6615 0.021815
59.3376 59.5688 0.01609
59.2978 57.0282 0.0189289
61.091 54.3234 0.0178516
59.2552 55.2002 0.017842
53.0425 69.0016 2
53.9666 66.0172 2
57.8833 60.8809 2
54.6842 63.215 2
55.2136 60.6272 2
63.2085 48.6686 2
61.7572 52.5879 2
60.2924 50.0323 2
58.024 58.2758 2
59.343 53.9643 2
58.1374 55.8308 2
52.0702 67.0031 3.98974
52.9532 64.2244 3.98638
56.652 59.5011 3.98305
[...]
POINT_DATA 3012
SCALARS Jp_lamdaP float 4
LOOKUP_TABLE default
1 1 1 1
1 1 1 1
1 1 1 1
1 1 1 1
1 1 1 1
1 1 1 1
0.999941 1 1 0.999941
1 1 1 1
1 1 1 1
1 1 1 1
1 1 1 1
0.999991 1 1 0.999991
0.999995 1 1 0.999995
1 1 1 1
1 1 1 1
1 1 1 1
1 1 1 1
1 1 1 1
0.999942 1 1 0.999942
1 1 1 1
0.999999 1 1 0.999999
1 1 1 1
0.999894 1 1 0.999894
0.999928 1 1 0.999928
1 1 1 1
0.999956 1 1 0.999956
0.999819 1 1 0.999819
1 1 1 1
1 1 1 1
1 1 1 1
1 1 1 1
0.999992 1 1 0.999992
1 1 1 1
1 1 1 1
0.999959 1 1 0.999959
1 1 1 1
0.999983 1 1 0.999983
0.999996 1 1 0.999996
0.999848 1 1 0.999848
1 1 1 1
1 1 1 1
1 1 1 1
1 1 1 1
0.999999 1 1 0.999999
0.999905 1 1 0.999905
1 1 1 1
0.999935 1 1 0.999935
1 1 1 1
1 1 1 1
1 1 1 1
0.999942 1 1 0.999942
0.999998 1 1 0.999998
0.999999 1 1 0.999999
1 1 1 1
1 1 1 1
0.999895 1 1 0.999895
0.999957 1 1 0.999957
0.999929 1 1 0.999929
0.999814 1 1 0.999814
1 1 1 1
0.999998 1 1 0.999998
0.999914 1 1 0.999914
0.999882 1 1 0.999882
0.999912 1 1 0.999912
0.999702 1 1 0.999702
0.999771 1 1 0.999771
1 1 1 1
0.999972 1 1 0.999972
0.999852 1 1 0.999852
0.999648 1 1 0.999648
1 1 1 1
1 1 1 1
1 1 1 1
0.999994 1 1 0.999994
1 1 1 1
1 1 1 1
0.999963 1 1 0.999963
1 1 1 1
0.999986 1 1 0.999986
0.999998 1 1 0.999998
0.999847 1 1 0.999847
1 1 1 1
1 1 1 1
0.999949 1 1 0.999949
0.999972 1 1 0.999972
0.999754 1 1 0.999754
1 1 1 1
0.999833 1 1 0.999833
0.999864 1 1 0.999864
0.999721 1 1 0.999721
1 1 1 1
1 1 1 1
1 1 1 1
1 1 1 1
1 1 1 1
0.999999 1 1 0.999999
0.99991 1 1 0.99991
1 1 1 1
0.999936 1 1 0.999936
1 1 1 1
0.99989 1 1 0.99989
0.999924 1 1 0.999924
0.999603 1 1 0.999603
0.999941 1 1 0.999941
0.999649 1 1 0.999649
0.999996 1 1 0.999996
0.999999 1 1 0.999999
1 1 1 1
1 1 1 1
0.999896 1 1 0.999896
0.99993 1 1 0.99993
0.999957 1 1 0.999957
0.99981 1 1 0.99981
1 1 1 1
0.999998 1 1 0.999998
0.999889 1 1 0.999889
0.999883 1 1 0.999883
1 1 1 1
0.999983 1 1 0.999983
0.999913 1 1 0.999913
0.999691 1 1 0.999691
0.999847 1 1 0.999847
0.999778 1 1 0.999778
0.999649 1 1 0.999649
0.999897 1 1 0.999897
0.999879 1 1 0.999879
0.99963 1 1 0.99963
0.999659 1 1 0.999659
0.999728 1 1 0.999728
0.999537 1 1 0.999537
1 1 1 1
0.999625 1 1 0.999625
1 1 1 1
0.999859 1 1 0.999859
0.999673 1 1 0.999673
0.999581 1 1 0.999581
1 1 1 1
0.999905 1 1 0.999905
1 1 1 1
1 1 1 1
0.999967 1 1 0.999967
1 1 1 1
0.999999 1 1 0.999999
0.999988 1 1 0.999988
0.999847 1 1 0.999847
1 1 1 1
1 1 1 1
0.999951 1 1 0.999951
0.999976 1 1 0.999976
0.999754 1 1 0.999754
1 1 1 1
0.999833 1 1 0.999833
0.999864 1 1 0.999864
0.999717 1 1 0.999717
1 1 1 1
1 1 1 1
0.999914 1 1 0.999914
0.99971 1 1 0.99971
0.9998 1 1 0.9998
0.999611 1 1 0.999611
0.999885 1 1 0.999885
0.999703 1 1 0.999703
0.999729 1 1 0.999729
0.999665 1 1 0.999665
1 1 1 1
1 1 1 1
1 1 1 1
1 1 1 1
1 1 1 1
1 1 1 1
1 1 1 1
0.999938 1 1 0.999938
0.999911 1 1 0.999911
1 1 1 1
1 1 1 1
0.999892 1 1 0.999892
0.999927 1 1 0.999927
0.999603 1 1 0.999603
0.999943 1 1 0.999943
0.999649 1 1 0.999649
0.999886 1 1 0.999886
0.999578 1 1 0.999578
0.999627 1 1 0.999627
0.999464 1 1 0.999464
0.999675 1 1 0.999675
0.999514 1 1 0.999514
1 1 1 1
0.999999 1 1 0.999999
0.999863 1 1 0.999863
0.999884 1 1 0.999884
1 1 1 1
0.999995 1 1 0.999995
0.999915 1 1 0.999915
0.99968 1 1 0.99968
0.999785 1 1 0.999785
0.999842 1 1 0.999842
0.99965 1 1 0.99965
0.999895 1 1 0.999895
0.999879 1 1 0.999879
0.999608 1 1 0.999608
0.999667 1 1 0.999667
1 1 1 1
0.999999 1 1 0.999999
0.999868 1 1 0.999868
0.999729 1 1 0.999729
0.999524 1 1 0.999524
0.99967 1 1 0.99967
0.999631 1 1 0.999631
0.999582 1 1 0.999582
1 1 1 1
0.999905 1 1 0.999905
0.999584 1 1 0.999584
0.999646 1 1 0.999646
0.999481 1 1 0.999481
0.999482 1 1 0.999482
0.999595 1 1 0.999595
0.999474 1 1 0.999474
1 1 1 1
0.999563 1 1 0.999563
0.999873 1 1 0.999873
0.999705 1 1 0.999705
0.999603 1 1 0.999603
0.999564 1 1 0.999564
0.999889 1 1 0.999889
0.999931 1 1 0.999931
0.999743 1 1 0.999743
0.999954 1 1 0.999954
1 1 1 1
1 1 1 1
0.999979 1 1 0.999979
0.999755 1 1 0.999755
1 1 1 1
0.999864 1 1 0.999864
0.999833 1 1 0.999833
0.999712 1 1 0.999712
1 1 1 1
1 1 1 1
0.999914 1 1 0.999914
0.99971 1 1 0.99971
0.999801 1 1 0.999801
0.999611 1 1 0.999611
0.999885 1 1 0.999885
0.999708 1 1 0.999708
0.999728 1 1 0.999728
0.999659 1 1 0.999659
1 1 1 1
0.9999 1 1 0.9999
0.999933 1 1 0.999933
0.999763 1 1 0.999763
0.999569 1 1 0.999569
0.999668 1 1 0.999668
0.99954 1 1 0.99954
0.999746 1 1 0.999746
0.999648 1 1 0.999648
0.999646 1 1 0.999646
0.999618 1 1 0.999618
0.99998 1 1 0.99998
1 1 1 1
1 1 1 1
1 1 1 1
1 1 1 1
1 1 1 1
1 1 1 1
1 1 1 1
1 1 1 1
0.999945 1 1 0.999945
0.999928 1 1 0.999928
0.999649 1 1 0.999649
0.999603 1 1 0.999603
0.999893 1 1 0.999893
1 1 1 1
0.999885 1 1 0.999885
0.999578 1 1 0.999578
0.999627 1 1 0.999627
0.999464 1 1 0.999464
0.999676 1 1 0.999676
0.999514 1 1 0.999514
0.999572 1 1 0.999572
0.99944 1 1 0.99944
0.999489 1 1 0.999489
0.999422 1 1 0.999422
0.99954 1 1 0.99954
0.999467 1 1 0.999467
0.999894 1 1 0.999894
0.99988 1 1 0.99988
0.999587 1 1 0.999587
0.999674 1 1 0.999674
1 1 1 1
0.999998 1 1 0.999998
0.999877 1 1 0.999877
0.99973 1 1 0.99973
0.999512 1 1 0.999512
0.999637 1 1 0.999637
0.999668 1 1 0.999668
0.999584 1 1 0.999584
1 1 1 1
0.999905 1 1 0.999905
0.999576 1 1 0.999576
0.999646 1 1 0.999646
0.999476 1 1 0.999476
0.999495 1 1 0.999495
1 1 1 1
0.999873 1 1 0.999873
0.999714 1 1 0.999714
0.999595 1 1 0.999595
0.999471 1 1 0.999471
0.999593 1 1 0.999593
0.999563 1 1 0.999563
0.999563 1 1 0.999563
0.999889 1 1 0.999889
0.999739 1 1 0.999739
0.99993 1 1 0.99993
0.999464 1 1 0.999464
0.999483 1 1 0.999483
0.99941 1 1 0.99941
0.999431 1 1 0.999431
0.999531 1 1 0.999531
0.999477 1 1 0.999477
0.999882 1 1 0.999882
0.999553 1 1 0.999553
0.999745 1 1 0.999745
0.999623 1 1 0.999623
0.999545 1 1 0.999545
0.999584 1 1 0.999584
0.999957 1 1 0.999957
0.999747 1 1 0.999747
0.999739 1 1 0.999739
0.999678 1 1 0.999678
0.999711 1 1 0.999711
1 1 1 1
1 1 1 1
0.999914 1 1 0.999914
0.999803 1 1 0.999803
0.999611 1 1 0.999611
0.999885 1 1 0.999885
0.999727 1 1 0.999727
0.999713 1 1 0.999713
0.999653 1 1 0.999653
1 1 1 1
0.9999 1 1 0.9999
0.999933 1 1 0.999933
0.999762 1 1 0.999762
0.999568 1 1 0.999568
0.999668 1 1 0.999668
0.99954 1 1 0.99954
0.999747 1 1 0.999747
0.999654 1 1 0.999654
0.999644 1 1 0.999644
0.999631 1 1 0.999631
1 1 1 1
0.999951 1 1 0.999951
0.999758 1 1 0.999758
0.999776 1 1 0.999776
0.999674 1 1 0.999674
0.999506 1 1 0.999506
0.999601 1 1 0.999601
0.999514 1 1 0.999514
0.999657 1 1 0.999657
0.999612 1 1 0.999612
0.99956 1 1 0.99956
0.999973 1 1 0.999973
0.999853 1 1 0.999853
0.999986 1 1 0.999986
0.999982 1 1 0.999982
1 1 1 1
1 1 1 1
1 1 1 1
1 1 1 1
1 1 1 1
1 1 1 1
1 1 1 1
1 1 1 1
1 1 1 1
1 1 1 1
1 1 1 1
0.999676 1 1 0.999676
0.999627 1 1 0.999627
0.999514 1 1 0.999514
0.999463 1 1 0.999463
0.999578 1 1 0.999578
0.999885 1 1 0.999885
0.999572 1 1 0.999572
0.99944 1 1 0.99944
0.999489 1 1 0.999489
0.99942 1 1 0.99942
0.99954 1 1 0.99954
0.999467 1 1 0.999467
0.999432 1 1 0.999432
0.999401 1 1 0.999401
0.99944 1 1 0.99944
0.999413 1 1 0.999413
0.999489 1 1 0.999489
0.999485 1 1 0.999485
0.999568 1 1 0.999568
0.999646 1 1 0.999646
0.999472 1 1 0.999472
0.999509 1 1 0.999509
1 1 1 1
0.999873 1 1 0.999873
0.999722 1 1 0.999722
0.999595 1 1 0.999595
0.999468 1 1 0.999468
0.999564 1 1 0.999564
0.999584 1 1 0.999584
0.999562 1 1 0.999562
0.99989 1 1 0.99989
0.999735 1 1 0.999735
0.99993 1 1 0.99993
0.999454 1 1 0.999454
0.999483 1 1 0.999483
0.999403 1 1 0.999403
0.999434 1 1 0.999434
0.999882 1 1 0.999882
0.999744 1 1 0.999744
0.999632 1 1 0.999632
0.999535 1 1 0.999535
0.999482 1 1 0.999482
0.999537 1 1 0.999537
0.999554 1 1 0.999554
0.999588 1 1 0.999588
0.999748 1 1 0.999748
0.99967 1 1 0.99967
0.999955 1 1 0.999955
0.999742 1 1 0.999742
0.999391 1 1 0.999391
0.999411 1 1 0.999411
0.999372 1 1 0.999372
0.999425 1 1 0.999425
0.999534 1 1 0.999534
0.999503 1 1 0.999503
0.999753 1 1 0.999753
0.999595 1 1 0.999595
0.999667 1 1 0.999667
0.999557 1 1 0.999557
0.999507 1 1 0.999507
0.999589 1 1 0.999589
0.999971 1 1 0.999971
0.999765 1 1 0.999765
0.999684 1 1 0.999684
0.999656 1 1 0.999656
0.999643 1 1 0.999643
1 1 1 1
0.999567 1 1 0.999567
0.999933 1 1 0.999933
0.999899 1 1 0.999899
0.999762 1 1 0.999762
0.999669 1 1 0.999669
0.99954 1 1 0.99954
0.999747 1 1 0.999747
0.999642 1 1 0.999642
0.99966 1 1 0.99966
0.999644 1 1 0.999644
1 1 1 1
0.999952 1 1 0.999952
0.999757 1 1 0.999757
0.999775 1 1 0.999775
0.999672 1 1 0.999672
0.999505 1 1 0.999505
0.999601 1 1 0.999601
0.999511 1 1 0.999511
0.999658 1 1 0.999658
0.999616 1 1 0.999616
0.999567 1 1 0.999567
0.999964 1 1 0.999964
0.999794 1 1 0.999794
0.999669 1 1 0.999669
0.99968 1 1 0.99968
0.999634 1 1 0.999634
0.999493 1 1 0.999493
0.999567 1 1 0.999567
0.999538 1 1 0.999538
0.999578 1 1 0.999578
0.999518 1 1 0.999518
0.999975 1 1 0.999975
0.999817 1 1 0.999817
0.999844 1 1 0.999844
0.999756 1 1 0.999756
0.999864 1 1 0.999864
0.99999 1 1 0.99999
0.999987 1 1 0.999987
1 1 1 1
0.999984 1 1 0.999984
1 1 1 1
1 1 1 1
1 1 1 1
1 1 1 1
1 1 1 1
1 1 1 1
1 1 1 1
1 1 1 1
1 1 1 1
1 1 1 1
1 1 1 1
0.999539 1 1 0.999539
0.999489 1 1 0.999489
0.999467 1 1 0.999467
0.999418 1 1 0.999418
0.99944 1 1 0.99944
0.999571 1 1 0.999571
0.999432 1 1 0.999432
0.999398 1 1 0.999398
0.999441 1 1 0.999441
0.999411 1 1 0.999411
0.999488 1 1 0.999488
0.999486 1 1 0.999486
0.999386 1 1 0.999386
0.999392 1 1 0.999392
0.999439 1 1 0.999439
0.999403 1 1 0.999403
0.999494 1 1 0.999494
0.999507 1 1 0.999507
0.999444 1 1 0.999444
0.999483 1 1 0.999483
0.999396 1 1 0.999396
0.999436 1 1 0.999436
0.999882 1 1 0.999882
0.999744 1 1 0.999744
0.999641 1 1 0.999641
0.999539 1 1 0.999539
0.999487 1 1 0.999487
0.999554 1 1 0.999554
0.999529 1 1 0.999529
0.999592 1 1 0.999592
0.999749 1 1 0.999749
0.999662 1 1 0.999662
0.999954 1 1 0.999954
0.999745 1 1 0.999745
0.999392 1 1 0.999392
0.999412 1 1 0.999412
0.99937 1 1 0.99937
0.999426 1 1 0.999426
0.999753 1 1 0.999753
0.999675 1 1 0.999675
0.999556 1 1 0.999556
0.99953 1 1 0.99953
0.999521 1 1 0.999521
0.999503 1 1 0.999503
0.999596 1 1 0.999596
0.999603 1 1 0.999603
0.999684 1 1 0.999684
0.999641 1 1 0.999641
0.999654 1 1 0.999654
0.999958 1 1 0.999958
0.999769 1 1 0.999769
0.999364 1 1 0.999364
0.99936 1 1 0.99936
0.999449 1 1 0.999449
0.999565 1 1 0.999565
0.999693 1 1 0.999693
0.99964 1 1 0.99964
0.999614 1 1 0.999614
0.999473 1 1 0.999473
0.999476 1 1 0.999476
0.999958 1 1 0.999958
0.999817 1 1 0.999817
0.999674 1 1 0.999674
0.999658 1 1 0.999658
0.999593 1 1 0.999593
0.999615 1 1 0.999615
1 1 1 1
0.999952 1 1 0.999952
0.999504 1 1 0.999504
0.999775 1 1 0.999775
0.999757 1 1 0.999757
0.99967 1 1 0.99967
0.999601 1 1 0.999601
0.999508 1 1 0.999508
0.999659 1 1 0.999659
0.999574 1 1 0.999574
0.99962 1 1 0.99962
0.999966 1 1 0.999966
0.999793 1 1 0.999793
0.999674 1 1 0.999674
0.999679 1 1 0.999679
0.999628 1 1 0.999628
0.999491 1 1 0.999491
0.999564 1 1 0.999564
0.999542 1 1 0.999542
0.999573 1 1 0.999573
0.999507 1 1 0.999507
0.999813 1 1 0.999813
0.999676 1 1 0.999676
0.999611 1 1 0.999611
0.999614 1 1 0.999614
0.999595 1 1 0.999595
0.999578 1 1 0.999578
0.999502 1 1 0.999502
0.999525 1 1 0.999525
0.999518 1 1 0.999518
0.999412 1 1 0.999412
0.999977 1 1 0.999977
0.999823 1 1 0.999823
0.999709 1 1 0.999709
0.999835 1 1 0.999835
0.999864 1 1 0.999864
0.999743 1 1 0.999743
0.999671 1 1 0.999671
0.999739 1 1 0.999739
0.999872 1 1 0.999872
0.999992 1 1 0.999992
0.999991 1 1 0.999991
1 1 1 1
0.999988 1 1 0.999988
1 1 1 1
1 1 1 1
1 1 1 1
1 1 1 1
1 1 1 1
1 1 1 1
1 1 1 1
1 1 1 1
1 1 1 1
1 1 1 1
1 1 1 1
0.999487 1 1 0.999487
0.999441 1 1 0.999441
0.999486 1 1 0.999486
0.999409 1 1 0.999409
0.999395 1 1 0.999395
0.999432 1 1 0.999432
0.999385 1 1 0.999385
0.999393 1 1 0.999393
0.999434 1 1 0.999434
0.999397 1 1 0.999397
0.999494 1 1 0.999494
0.99952 1 1 0.99952
0.999382 1 1 0.999382
0.999395 1 1 0.999395
0.999438 1 1 0.999438
0.999565 1 1 0.999565
0.999393 1 1 0.999393
0.999414 1 1 0.999414
0.999368 1 1 0.999368
0.999428 1 1 0.999428
0.999753 1 1 0.999753
0.999682 1 1 0.999682
0.999556 1 1 0.999556
0.999526 1 1 0.999526
0.999538 1 1 0.999538
0.999597 1 1 0.999597
0.999499 1 1 0.999499
0.999616 1 1 0.999616
0.999684 1 1 0.999684
0.999638 1 1 0.999638
0.999652 1 1 0.999652
0.999944 1 1 0.999944
0.999773 1 1 0.999773
0.999363 1 1 0.999363
0.999366 1 1 0.999366
0.999455 1 1 0.999455
0.999692 1 1 0.999692
0.999624 1 1 0.999624
0.999471 1 1 0.999471
0.999557 1 1 0.999557
0.999495 1 1 0.999495
0.999636 1 1 0.999636
0.999959 1 1 0.999959
0.999658 1 1 0.999658
0.999621 1 1 0.999621
0.999594 1 1 0.999594
0.999679 1 1 0.999679
0.999807 1 1 0.999807
0.999356 1 1 0.999356
0.999355 1 1 0.999355
0.999498 1 1 0.999498
0.999628 1 1 0.999628
0.999656 1 1 0.999656
0.999539 1 1 0.999539
0.999524 1 1 0.999524
0.999408 1 1 0.999408
0.999969 1 1 0.999969
0.999844 1 1 0.999844
0.999709 1 1 0.999709
0.999577 1 1 0.999577
0.999623 1 1 0.999623
0.99957 1 1 0.99957
0.999967 1 1 0.999967
0.999793 1 1 0.999793
0.99949 1 1 0.99949
0.999678 1 1 0.999678
0.999679 1 1 0.999679
0.999623 1 1 0.999623
0.999562 1 1 0.999562
0.999545 1 1 0.999545
0.999568 1 1 0.999568
0.999496 1 1 0.999496
0.999813 1 1 0.999813
0.99968 1 1 0.99968
0.999619 1 1 0.999619
0.999618 1 1 0.999618
0.9996 1 1 0.9996
0.999581 1 1 0.999581
0.999506 1 1 0.999506
0.999552 1 1 0.999552
0.999511 1 1 0.999511
0.999401 1 1 0.999401
0.999692 1 1 0.999692
0.999595 1 1 0.999595
0.999555 1 1 0.999555
0.999562 1 1 0.999562
0.999572 1 1 0.999572
0.999592 1 0.999999 0.999592
0.999405 1 1 0.999405
0.999892 1 1.00051 0.99938
0.99983 1 1 0.99983
0.999716 1 1 0.999716
0.999645 1 1 0.999645
0.999864 1 1 0.999864
0.999729 1 1 0.999729
0.999872 1 1 0.999872
0.99966 1 1 0.99966
0.999744 1 1 0.999744
0.999605 1 1 0.999605
0.999658 1 1 0.999658
0.999747 1 1 0.999747
0.999877 1 1 0.999877
0.999993 1 1 0.999993
0.999992 1 1 0.999992
1 1 1 1
0.999991 1 1 0.999991
1 1 1 1
1 1 1 1
1 1 1 1
1 1 1 1
1 1 1 1
1 1 1 1
1 1 1 1
1 1 1 1
1 1 1 1
1 1 1 1
1 1 1 1
0.999494 1 1 0.999494
0.999429 1 1 0.999429
0.999533 1 1 0.999533
0.999391 1 1 0.999391
0.999394 1 1 0.999394
0.999383 1 1 0.999383
0.999382 1 1 0.999382
0.999395 1 1 0.999395
0.999443 1 1 0.999443
0.999561 1 1 0.999561
0.999387 1 1 0.999387
0.99942 1 1 0.99942
0.999501 1 1 0.999501
0.999362 1 1 0.999362
0.999371 1 1 0.999371
0.999462 1 1 0.999462
0.999692 1 1 0.999692
0.999634 1 1 0.999634
0.999469 1 1 0.999469
0.99955 1 1 0.99955
0.999633 1 1 0.999633
0.999514 1 1 0.999514
0.999657 1 1 0.999657
0.999628 1 1 0.999628
0.999595 1 1 0.999595
0.999959 1 1 0.999959
0.999683 1 1 0.999683
0.999796 1 1 0.999796
0.999361 1 1 0.999361
0.999353 1 1 0.999353
0.999487 1 1 0.999487
0.999654 1 1 0.999654
0.999538 1 1 0.999538
0.999445 1 1.00003 0.999413
0.999635 1 1 0.999635
0.999537 1 1 0.999537
0.999979 1 1 0.999979
0.999844 1 1 0.999844
0.999623 1 1 0.999623
0.999573 1 1 0.999573
0.999582 1 1 0.999582
0.999701 1 1 0.999701
0.999378 1 1 0.999378
0.999372 1 1 0.999372
0.999514 1 0.999905 0.999608
0.999643 1 1 0.999643
0.999601 1 1 0.999601
1.0006 1 1.00122 0.999377
0.999456 1 1 0.999456
0.999996 1 1 0.999996
0.9999 1 1 0.9999
0.999849 1 1 0.999849
0.999717 1 1 0.999717
0.999605 1 1 0.999605
0.999519 1 1 0.999519
0.9996 1 1 0.9996
0.999542 1 1 0.999542
0.999813 1 1 0.999813
0.999684 1 1 0.999684
0.999584 1 1 0.999584
0.999623 1 1 0.999623
0.999627 1 1 0.999627
0.999604 1 1 0.999604
0.999509 1 1 0.999509
0.999579 1 1 0.999579
0.999504 1 1 0.999504
0.99939 1 1 0.99939
0.999689 1 1 0.999689
0.999603 1 1 0.999603
0.999563 1 1 0.999563
0.999568 1 1 0.999568
0.999571 1 1 0.999571
0.999588 1 1 0.999588
0.999418 1 1 0.999418
0.999722 1 1.00035 0.999375
0.999625 1 1 0.999625
0.999494 1 1 0.999494
0.999548 1 1 0.999548
0.999491 1 1 0.999491
0.999794 1.00037 0.999824 0.999599
0.999386 1 1 0.999386
1.00025 1 1.00093 0.999319
0.999722 1 1 0.999722
0.999645 1 1 0.999645
0.999587 1 1 0.999587
0.999872 1 1 0.999872
0.999749 1 1 0.999749
0.99965 1 1 0.99965
0.999877 1 1 0.999877
0.999746 1 1 0.999746
0.999597 1 1 0.999597
0.999668 1 1 0.999668
0.999557 1 1 0.999557
0.999591 1 1 0.999591
0.999677 1 1 0.999677
0.999762 1 1 0.999762
0.999878 1 1 0.999878
0.999992 1 1 0.999992
0.999993 1 1 0.999993
1 1 1 1
0.999993 1 1 0.999993
1 1 1 1
1 1 1 1
1 1 1 1
1 1 1 1
1 1 1 1
0.999999 1 1 0.999999
1 1 1 1
1 1 1 1
1 1 1 1
1 1 1 1
1 1 1 1
1 1 1 1
0.999556 1 1 0.999556
0.999449 1 1 0.999449
0.999395 1 1 0.999395
0.999382 1 1 0.999382
0.999393 1 1 0.999393
0.999413 1 1 0.999413
0.999515 1 1 0.999515
0.999414 1 1 0.999414
0.999439 1 1 0.999439
0.999515 1 1 0.999515
0.999366 1 1 0.999366
0.99935 1 1 0.99935
0.999476 1 1 0.999476
0.999653 1 1 0.999653
0.999551 1 1 0.999551
0.999418 1 1 0.999418
0.999642 1 1 0.999642
0.999536 1 1 0.999536
0.999622 1 1 0.999622
0.999576 1 1 0.999576
0.999587 1 1 0.999587
0.999989 1 1 0.999989
0.999845 1 1 0.999845
0.999693 1 1 0.999693
0.999378 1 1 0.999378
0.999995 1 1 0.999995
0.999892 1 1 0.999892
0.999374 1 1 0.999374
0.999588 1 1 0.999588
0.999608 1 1 0.999608
0.999488 1 1.00005 0.99944
0.99993 1 1.00055 0.999383
0.99964 1 1 0.99964
0.999868 1 1 0.999868
0.999716 1 1 0.999716
0.9996 1 1 0.9996
0.999558 1 1 0.999558
0.999508 1 1 0.999508
0.999607 1 1 0.999607
0.999387 1 1 0.999387
0.99953 1.00007 1 0.999458
0.999464 1.00014 0.999601 0.999719
0.999475 1 1 0.999475
0.999562 1 1 0.999562
1.00146 1 1.00212 0.999342
0.999899 1 1 0.999899
0.999884 1 1 0.999884
0.999802 1 1 0.999802
0.999723 1 1 0.999723
0.999633 1 1 0.999633
0.999523 1 1 0.999523
0.999458 1 1 0.999458
0.999559 1 1 0.999559
0.999686 1 1 0.999686
0.99961 1 1 0.99961
0.999569 1 1 0.999569
0.999583 1 1 0.999583
0.999573 1 1 0.999573
0.99957 1 1 0.99957
0.999431 1 1 0.999431
0.999576 1 1.00021 0.99937
0.999624 1 1 0.999624
0.99951 1 1 0.99951
0.999548 1 1 0.999548
0.99956 1 1.00008 0.999478
0.999662 1.00019 0.999881 0.999592
0.99939 1 1 0.99939
1.00013 1 1.00082 0.999317
0.99956 1 1 0.99956
1.00298 1.004 0.999451 0.999531
0.999506 1 1 0.999506
0.999935 1 1.00055 0.999383
0.997775 1.00035 0.998024 0.999398
1.00064 1 1.00137 0.999276
1.00373 1.00679 0.9976 0.999357
0.999645 1 1 0.999645
0.999587 1 1 0.999587
0.999547 1 1 0.999547
0.999877 1 1 0.999877
0.999745 1 1 0.999745
0.999679 1 1 0.999679
0.999589 1 1 0.999589
0.999878 1 1 0.999878
0.999755 1 1 0.999755
0.999555 1 1 0.999555
0.999677 1 1 0.999677
0.9996 1 1 0.9996
0.999535 1 1 0.999535
0.999618 1 1 0.999618
0.999684 1 1 0.999684
0.999747 1 1 0.999747
0.999859 1 1 0.999859
0.999777 1 1 0.999777
0.999859 1 1 0.999859
0.999992 1 1 0.999992
0.999992 1 1 0.999992
1 1 1 1
0.999992 1 1 0.999992
1 1 1 1
1 1 1 1
1 1 1 1
1 1 1 1
1 1 1 1
1 1 1 1
0.999999 1 1 0.999999
1 1 1 1
1 1 1 1
1 1 1 1
1 1 1 1
1 1 1 1
1 1 1 1
0.999529 1 1 0.999529
0.999406 1 1 0.999406
0.999398 1 1 0.999398
0.999414 1 1 0.999414
0.999446 1 1 0.999446
0.999521 1 1 0.999521
0.999458 1 1 0.999458
1 1.0051 0.995308 0.999619
1.00095 1.00163 0.999705 0.99961
0.999924 1 1 0.999924
0.999378 1 1 0.999378
0.999375 1 1 0.999375
0.999569 1 1 0.999569
0.999614 1 1 0.999614
0.999707 1 1.00028 0.999425
0.999495 1 1.00011 0.999388
0.999637 1 1 0.999637
0.999599 1 1 0.999599
0.999574 1 1 0.999574
0.999496 1 1 0.999496
0.999993 1 1 0.999993
0.999609 1 1 0.999609
0.999887 1 1 0.999887
0.999716 1 1 0.999716
0.999885 1 1 0.999885
0.99938 1 1 0.99938
0.999907 1 1 0.999907
0.999884 1 1 0.999884
0.999787 1 1 0.999787
0.999585 1.00012 1 0.999461
0.99923 1.00007 0.999469 0.999692
0.999566 1 1 0.999566
1.00152 1 1.00218 0.999335
0.999634 1 1.00015 0.99948
0.999733 1 1 0.999733
0.999629 1 1 0.999629
0.999553 1 1 0.999553
0.999505 1 1.00004 0.999469
0.999531 1 1 0.999531
0.999516 1.0001 1.00004 0.99937
0.997547 1.00057 0.997374 0.999601
0.999436 1.00017 0.999716 0.999554
1.00069 1 1.00133 0.999357
1.00091 1 1.00143 0.99949
0.999788 1 1 0.999788
0.99975 1 1 0.99975
0.999704 1 1 0.999704
0.999638 1 1 0.999638
0.999564 1 1 0.999564
0.999474 1 1 0.999474
1.00104 1 1.00161 0.999437
0.999624 1 1 0.999624
0.999548 1 1 0.999548
0.999526 1 1 0.999526
0.999439 1 0.999854 0.999585
0.999393 1 1 0.999393
0.999603 1 1.00014 0.999466
0.999957 1 1.00064 0.999316
0.999566 1 1 0.999566