# vtk DataFile Version 2.0
Wound Healing Simulation
ASCII
DATASET UNSTRUCTURED_GRID
POINTS 3012 float
69.9759 18.75 4
67.2507 60.3285 4
69.976 18.75 2
73.0099 25.446 4
71.1327 20.9142 4
68.6801 16.6661 4
67.8236 19.9265 3.97797
67.2507 60.3286 2
71.1327 54.0858 4
68.6801 58.3339 4
65.6939 62.2254 4
65.3103 59.0004 3.97724
74.6784 42.3946 4
73.7221 47.2057 4
69.9759 18.75 0
73.0099 25.446 2
68.6801 16.6661 2
71.1327 20.9142 2
67.8242 19.9301 2
74.6792 32.6053 4
73.7222 27.7943 4
72.1454 23.1494 4
70.6127 26.2213 3.97772
68.8839 21.9582 3.97842
67.2507 14.6715 4
66.635 17.9728 3.97697
65.7916 21.0284 3.96696
67.2507 60.3285 0
71.1327 54.0858 2
68.6801 58.3339 2
65.694 62.2255 2
65.3116 58.9956 2
72.1454 51.8506 4
69.9759 56.25 4
68.8345 53.1131 3.97765
64.0165 64.0165 4
66.6089 57.1332 3.97772
63.8834 60.7643 3.97741
63.4955 57.7662 3.96806
60.3285 67.2507 4
74.6792 42.3947 2
73.7222 47.2057 2
74.9194 39.9526 4
74.2788 44.8158 4
72.1671 42.0857 3.9781
73.0099 49.554 4
71.2478 46.598 3.97732
73.0099 25.446 0
71.1327 20.9142 0
68.6801 16.6661 0
67.8236 19.9265 0.0220335
74.6792 32.6053 2
73.7222 27.7943 2
67.2508 14.6715 2
72.1455 23.1494 2
70.6125 26.222 2
66.636 17.9775 2
68.8842 21.9605 2
65.7908 21.0295 2
74.9197 35.0474 4
74.2794 30.1841 4
72.1838 32.944 3.97845
71.2769 28.4319 3.97763
69.8139 24.0598 3.97821
68.3423 26.9535 3.96666
66.7573 22.9356 3.96669
65.694 12.7746 4
65.3213 16.105 3.97631
64.7079 19.1997 3.96739
63.8423 22.0532 3.96494
71.1327 54.0858 0
65.6939 62.2254 0
68.6801 58.3339 0
65.3103 59.0004 0.02276
72.1455 51.8506 2
69.9759 56.25 2
68.8346 53.111 2
64.0165 64.0165 2
66.6097 57.1289 2
63.8853 60.76 2
63.4941 57.7658 2
62.2254 65.694 4
58.893 65.4132 3.98667
69.7671 50.989 3.97739
67.7818 55.1671 3.97781
66.644 52.2076 3.96643
62.3336 62.4252 3.97959
64.6554 56.0281 3.96768
62.1975 59.3947 3.9677
61.8067 56.6678 3.96358
58.3339 68.6801 4
60.3285 67.2508 2
73.7221 47.2057 0
74.6784 42.3946 0
74.9197 39.9526 2
74.2794 44.8159 2
72.1664 42.0855 2
73.0099 49.554 2
71.2476 46.5977 2
75 37.5 4
72.4044 39.8025 3.97898
71.7813 44.3529 3.97802
69.8002 41.7901 3.96773
70.5734 48.8135 3.9771
68.9076 46.0144 3.96704
74.6792 32.6053 0
73.7222 27.7943 0
67.2507 14.6715 0
72.1454 23.1494 0
70.6127 26.2213 0.0222779
68.8839 21.9582 0.0215782
66.635 17.9728 0.0230304
65.7916 21.0284 0.0330394
74.9197 35.0474 2
74.2794 30.1841 2
72.1832 32.9443 2
71.2766 28.4324 2
65.694 12.7745 2
65.3229 16.1103 2
69.8139 24.0611 2
68.342 26.9543 2
64.707 19.2007 2
66.7568 22.9366 2
63.8425 22.0537 2
72.4123 35.2247 3.97892
71.8028 30.6769 3.97828
69.8365 33.2702 3.96791
68.962 29.0402 3.96708
67.6064 24.9141 3.96658
66.1368 27.6493 3.96716
64.0165 10.9835 4
64.7048 23.8472 3.96579
63.8872 14.3298 3.97694
63.5073 17.4551 3.96789
62.8682 20.3396 3.96389
61.9841 22.9832 3.96744
60.682 11.1007 3.98126
57.6085 11.4588 3.97226
72.1454 51.8506 0
69.9759 56.25 0
68.8345 53.1131 0.0223457
64.0165 64.0165 0
63.8834 60.7643 0.0225925
66.6089 57.1332 0.0222796
63.4955 57.7662 0.0319389
62.2255 65.694 2
58.8952 65.4111 2
69.767 50.9879 2
67.7822 55.1638 2
66.6433 52.2068 2
62.3357 62.4213 2
64.6543 56.0275 2
62.1964 59.3952 2
61.8084 56.6683 2
60.6667 63.9749 3.98275
57.0239 66.7347 3.98875
57.5555 63.6847 3.97459
67.5021 50.1755 3.96627
65.6965 54.1711 3.96692
64.4779 51.3686 3.96546
60.7687 60.9241 3.97065
62.7902 55.0541 3.96435
60.6466 58.1426 3.96344
60.2831 55.7586 3.9644
56.25 69.9759 4
58.3339 68.6801 2
60.3285 67.2507 0
58.9194 9.65831 3.98333
62.2254 9.30607 4
73.0099 49.554 0
74.2788 44.8158 0
71.2478 46.598 0.0226816
72.1671 42.0857 0.0218966
74.9194 39.9526 0
75 37.5 2
72.4043 39.8025 2
71.7811 44.3525 2
69.7995 41.7898 2
70.5732 48.8131 2
68.9075 46.0138 2
72.4878 37.5125 3.97853
70.0378 39.6582 3.96806
69.4263 43.9076 3.96757
67.5423 41.4932 3.96955
68.2608 48.1063 3.96644
66.6419 45.4286 3.96855
74.9197 35.0474 0
74.2794 30.1841 0
72.1838 32.944 0.0215542
71.2769 28.4319 0.0223695
65.694 12.7746 0
65.3213 16.105 0.0236925
69.8139 24.0598 0.0217898
68.3423 26.9535 0.033338
66.7573 22.9356 0.0333095
64.7079 19.1997 0.0326063
63.8423 22.0532 0.0350611
72.4122 35.2248 2
71.8027 30.6775 2
69.8358 33.2707 2
68.9618 29.0408 2
64.0165 10.9835 2
63.8895 14.335 2
63.5061 17.4561 2
67.606 24.9151 2
66.1369 27.6498 2
62.8688 20.34 2
64.7046 23.8478 2
61.9831 22.9839 2
60.6848 11.1045 2
57.6104 11.4574 2
70.0545 35.3935 3.96795
69.4634 31.1514 3.96743
67.6068 33.5979 3.96921
66.7145 29.6355 3.96792
65.4678 25.7154 3.96653
64.0006 28.2886 3.97199
62.3391 12.6584 3.97896
62.7339 24.6757 3.96903
62.1933 15.7983 3.96919
61.7882 18.7052 3.96323
61.1197 21.3839 3.96524
60.2506 23.7887 3.97073
59.2415 12.803 3.97028
55.8716 10.2432 3.97498
56.3983 13.1544 3.96937
69.7671 50.989 0.0226104
62.2254 65.694 0
58.893 65.4132 0.0133348
67.7818 55.1671 0.0221919
66.644 52.2076 0.0335695
62.3336 62.4252 0.0204092
62.1975 59.3947 0.0322958
64.6554 56.0281 0.0323176
61.8067 56.6678 0.0364232
60.6689 63.9719 2
57.0258 66.7333 2
57.5562 63.6854 2
67.5017 50.1747 2
65.6955 54.1703 2
64.478 51.3683 2
60.7675 60.9252 2
62.7907 55.0541 2
60.6465 58.1428 2
60.2841 55.7588 2
55.0698 67.9316 3.99042
59.2149 62.3477 3.97151
55.8025 64.9042 3.97918
56.3201 62.0628 3.97187
65.2631 49.392 3.96644
63.6588 53.2766 3.96473
62.3014 50.6144 3.96805
59.3233 59.5363 3.96572
60.9986 54.2778 3.9662
59.2511 56.982 3.96269
59.1682 55.1456 3.96689
48.1005 68.5763 3.98615
50.9475 69.9314 3.99106
54.0858 71.1327 4
56.25 69.976 2
58.3339 68.6801 0
57.0569 8.33764 3.98549
60.3285 7.74928 4
58.9225 9.66135 2
62.2255 9.30602 2
70.5734 48.8135 0.0229037
71.7813 44.3529 0.0219802
68.9076 46.0144 0.0329586
69.8002 41.7901 0.032267
72.4044 39.8025 0.0210174
75 37.5 0
72.4872 37.5125 2
70.0377 39.6582 2
69.426 43.9072 2
67.5418 41.493 2
68.2605 48.1056 2
66.6409 45.4282 2
70.1258 37.5228 3.96802
67.7849 39.5111 3.9696
67.1615 43.4622 3.96927
65.4097 41.1974 3.97625
65.9971 47.4036 3.96757
64.483 44.8216 3.97314
72.4123 35.2247 0.0210827
71.8028 30.6769 0.0217174
69.8365 33.2702 0.0320922
68.962 29.0402 0.0329184
64.0165 10.9835 0
63.8872 14.3298 0.02306
63.5073 17.4551 0.0321139
67.6064 24.9141 0.0334237
66.1368 27.6493 0.0328428
64.7048 23.8472 0.0342125
62.8682 20.3396 0.0361095
61.9841 22.9832 0.0325574
60.682 11.1007 0.0187364
57.6085 11.4588 0.0277351
70.0544 35.3937 2
69.4632 31.1519 2
67.6065 33.5982 2
66.7141 29.636 2
62.3419 12.663 2
62.192 15.7989 2
61.7894 18.7053 2
65.4677 25.716 2
63.9985 28.2894 2
61.1184 21.3846 2
62.7328 24.6765 2
60.2502 23.7897 2
59.243 12.8027 2
56.3991 13.152 2
55.873 10.2428 2
67.8254 35.5518 3.9695
67.2144 31.6321 3.96882
65.5615 33.9418 3.97571
64.5146 30.2201 3.97318
63.4044 26.4503 3.97068
62.0296 28.8281 3.97622
60.77 14.2429 3.96934
60.8514 25.3966 3.9731
60.5982 17.1509 3.96335
60.1377 19.861 3.96286
59.4947 22.3235 3.9671
58.7487 24.3999 3.97368
54.0355 9.14418 3.97753
57.9005 14.3681 3.96809
54.7806 12.0399 3.97242
55.2995 14.6988 3.96613
67.5021 50.1755 0.0337302
57.0239 66.7347 0.0112456
60.6667 63.9749 0.0172507
57.5555 63.6847 0.02541
65.6965 54.1711 0.0330842
64.4779 51.3686 0.0345432
60.7687 60.9241 0.0293468
60.6466 58.1426 0.0365596
62.7902 55.0541 0.0356529
60.2831 55.7586 0.035598
55.0713 67.9309 2
59.2154 62.3503 2
55.803 64.9047 2
56.3193 62.0653 2
65.263 49.3916 2
63.6592 53.2765 2
62.3008 50.614 2
59.3219 59.5372 2
60.9987 54.2777 2
59.2548 56.9827 2
59.1706 55.1458 2
53.0418 68.9996 3.99087
53.965 66.0093 3.98211
57.8714 60.8434 3.96948
54.6793 63.1963 3.97418
55.1988 60.5798 3.96938
63.0385 48.625 3.96979
61.6285 52.5395 3.96707
60.0537 49.9617 3.97024
57.9968 58.2348 3.96449
59.2066 53.9014 3.96796
58.0297 55.7663 3.96251
50.1071 67.8546 3.98544
47.4617 66.5751 3.98183
46.0543 69.1554 3.98666
48.1007 68.577 2
48.8015 70.7226 3.9913
50.9486 69.931 2
51.8506 72.1454 4
54.0858 71.1327 2
56.25 69.9759 0
55.1018 7.14192 3.98813
58.3339 6.31992 4
57.0595 8.33929 2
60.3286 7.74926 2
58.9194 9.65831 0.0166731
62.2254 9.30607 0
68.2608 48.1063 0.0335569
69.4263 43.9076 0.0324277
66.6419 45.4286 0.0314496
67.5423 41.4932 0.0304498
70.0378 39.6582 0.0319427
72.4878 37.5125 0.0214702
70.1252 37.5228 2
67.7839 39.511 2
67.162 43.4619 2
65.4074 41.1969 2
65.9972 47.4033 2
64.4809 44.821 2
67.886 37.5236 3.96966
65.6477 39.365 3.97652
65.0201 43.0058 3.97513
63.5201 40.9083 3.97686
63.7964 46.6841 3.97133
62.5524 44.1749 3.97654
70.0545 35.3935 0.0320458
69.4634 31.1514 0.0325735
67.6068 33.5979 0.0307918
66.7145 29.6355 0.0320826
62.3391 12.6584 0.0210444
62.1933 15.7983 0.0308086
61.7882 18.7052 0.036771
65.4678 25.7154 0.0334721
64.0006 28.2886 0.0280051
62.7339 24.6757 0.0309722
61.1197 21.3839 0.0347577
60.2506 23.7887 0.0292696
59.2415 12.803 0.0297248
56.3983 13.1544 0.0306341
55.8716 10.2432 0.0250198
67.8242 35.552 2
67.2148 31.6325 2
65.5586 33.9423 2
64.5124 30.2208 2
60.7702 14.2438 2
60.5973 17.1513 2
60.1376 19.8613 2
63.403 26.4511 2
62.0271 28.8292 2
59.4965 22.3243 2
60.8505 25.3976 2
58.7478 24.4014 2
57.9005 14.3672 2
55.3001 14.698 2
54.037 9.14259 2
54.7814 12.0375 2
65.7441 35.6752 3.97625
65.0373 32.1761 3.97428
64.0784 34.2715 3.97673
62.3508 30.681 3.97682
61.4355 27.1281 3.97432
60.5691 29.2063 3.97706
59.2988 15.6978 3.9664
59.0704 25.8762 3.97616
59.0776 18.3973 3.96178
58.5991 20.9205 3.96367
58.0626 23.1771 3.9685
57.7135 24.7573 3.97479
52.1111 8.15941 3.98063
53.0535 11.0364 3.97377
56.6595 15.7886 3.96712
53.7987 13.7255 3.97005
54.3532 16.0584 3.96493
55.0698 67.9316 0.0095816
65.2631 49.392 0.0335591
55.8025 64.9042 0.0208188
59.2149 62.3477 0.0284881
56.3201 62.0628 0.0281294
63.6588 53.2766 0.0352735
62.3014 50.6144 0.0319494
59.3233 59.5363 0.0342833
59.2511 56.982 0.0373065
60.9986 54.2778 0.0337976
59.1682 55.1456 0.0331119
53.043 68.9991 2
53.9655 66.0098 2
57.8704 60.8452 2
54.6789 63.197 2
55.1984 60.5816 2
63.0374 48.6245 2
61.6287 52.5393 2
60.054 49.9612 2
57.9959 58.2361 2
59.2091 53.9014 2
58.0271 55.7652 2
52.0684 66.9972 3.98466
52.9507 64.2098 3.9791
56.6312 59.4577 3.96805
[...]
POINT_DATA 3012
SCALARS rho_c_phif_kappa float 4
LOOKUP_TABLE default
1000 0 1.00179 0.266216
1000 0 1.00148 0.266561
1000 0 1.00179 0.266184
1000 0 1.00179 0.266565
1000 0 1.00179 0.266284
1000 0 1.00179 0.266247
1009.87 1.09831e-08 1.00206 0.265219
1000 0 1.00148 0.266594
1000 0 1.00149 0.266844
1000 0 1.00149 0.266607
1000 0 1.00179 0.266061
1009.83 1.07735e-08 1.00222 0.26528
1000 0 1.00178 0.266852
1000 0 1.00179 0.267451
1000 0 1.00179 0.266129
1000 0 1.00179 0.266888
1000 0 1.00179 0.266102
1000 0 1.00179 0.266386
1009.81 1.10095e-08 1.00206 0.265279
1000 0 1.00148 0.266964
1000 0 1.00179 0.266668
1000 0 1.00179 0.266418
1009.82 1.10976e-08 1.00205 0.265919
1009.85 1.10298e-08 1.00206 0.265448
1000 0 1.0018 0.26635
1009.89 1.09363e-08 1.00206 0.264974
1010.53 1.21352e-08 1.00232 0.263094
1000 0 1.00148 0.266667
1000 0 1.00164 0.266566
1000 0 1.00164 0.266353
1000 0 1.00148 0.266787
1009.87 1.08064e-08 1.00222 0.265226
1000 0 1.00179 0.266379
1000 0 1.00179 0.265961
1009.86 1.10476e-08 1.00206 0.265263
1000 0 1.00148 0.267068
1009.83 1.08565e-08 1.00207 0.265328
1009.88 1.07319e-08 1.00222 0.265341
1010.55 1.21312e-08 1.00232 0.2632
1000 0 1.00148 0.267302
1000 0 1.00148 0.266958
1000 0 1.00164 0.267168
1000 0 1.00148 0.266988
1000 0 1.00179 0.267539
1009.77 1.11144e-08 1.0022 0.265985
1000 0 1.00148 0.267399
1009.83 1.11458e-08 1.00206 0.265684
1000 0 1.00179 0.267256
1000 0 1.00179 0.266487
1000 0 1.0018 0.265937
1009.87 1.09831e-08 1.00206 0.265341
1000 0 1.00163 0.267223
1000 0 1.00179 0.267035
1000 0 1.0018 0.266139
1000 0 1.00179 0.266652
1009.64 1.11208e-08 1.00205 0.265759
1009.89 1.09664e-08 1.00206 0.265119
1009.73 1.10532e-08 1.00206 0.265421
1010.54 1.21311e-08 1.00232 0.262968
1000 0 1.00148 0.267009
1000 0 1.00179 0.266743
1009.76 1.10914e-08 1.00205 0.26627
1009.8 1.111e-08 1.00205 0.266072
1009.83 1.10706e-08 1.00205 0.265691
1010.49 1.21216e-08 1.00231 0.263447
1010.52 1.21296e-08 1.00231 0.262956
1000 0 1.0018 0.266561
1009.94 1.0896e-08 1.00207 0.264727
1010.55 1.21439e-08 1.00232 0.263077
1010.35 1.19581e-08 1.0023 0.259593
1000 0 1.00149 0.266515
1000 0 1.00148 0.266952
1000 0 1.00148 0.266482
1009.83 1.07735e-08 1.00222 0.265171
1000 0 1.00149 0.266651
1000 0 1.00149 0.266416
1009.75 1.10718e-08 1.00221 0.265387
1000 0 1.00164 0.266695
1009.82 1.08864e-08 1.00222 0.2653
1009.94 1.07632e-08 1.00215 0.265284
1010.55 1.2127e-08 1.00232 0.263261
1000 0 1.00148 0.267128
1010.15 1.07709e-08 1.00225 0.265813
1009.87 1.11102e-08 1.00221 0.265539
1009.84 1.09573e-08 1.00222 0.265414
1010.51 1.21263e-08 1.00231 0.262816
1009.95 1.07205e-08 1.00208 0.265345
1010.54 1.21299e-08 1.00232 0.263039
1010.58 1.21437e-08 1.00232 0.263341
1010.4 1.20117e-08 1.0023 0.261058
1000 0 1.00148 0.26746
1000 0 1.00148 0.267407
1000 0 1.00148 0.266852
1000 0 1.00148 0.266963
1000 0 1.00148 0.266982
1000 0 1.00164 0.267236
1009.52 1.11383e-08 1.00213 0.265921
1000 0 1.00164 0.267028
1009.67 1.11699e-08 1.00213 0.265823
1000 0 1.00148 0.267001
1009.74 1.10924e-08 1.0022 0.266072
1009.8 1.11337e-08 1.00206 0.265769
1010.48 1.21139e-08 1.0023 0.263762
1009.85 1.11419e-08 1.00206 0.265572
1010.49 1.21213e-08 1.00231 0.26352
1000 0 1.00178 0.266842
1000 0 1.00178 0.267463
1000 0 1.0018 0.265938
1000 0 1.00179 0.266897
1009.82 1.10976e-08 1.00205 0.265589
1009.85 1.10298e-08 1.00206 0.265392
1009.89 1.09363e-08 1.00206 0.265264
1010.53 1.21352e-08 1.00232 0.262856
1000 0 1.00148 0.266975
1000 0 1.00179 0.267126
1009.52 1.11158e-08 1.00212 0.265987
1009.62 1.11343e-08 1.00205 0.265917
1000 0 1.00164 0.266423
1009.97 1.09286e-08 1.00207 0.265025
1009.69 1.1093e-08 1.00205 0.265575
1010.51 1.21181e-08 1.00231 0.263378
1010.55 1.21387e-08 1.00232 0.262898
1010.53 1.21261e-08 1.00231 0.262981
1010.35 1.19584e-08 1.0023 0.259574
1009.72 1.10824e-08 1.0022 0.266147
1009.78 1.11069e-08 1.00205 0.266145
1010.48 1.21131e-08 1.0023 0.263857
1010.49 1.2119e-08 1.0023 0.263612
1010.5 1.21252e-08 1.00231 0.263119
1010.33 1.1916e-08 1.00229 0.260803
1000 0 1.00149 0.267014
1010.34 1.19405e-08 1.00229 0.259706
1009.99 1.08646e-08 1.00223 0.264943
1010.57 1.21575e-08 1.00232 0.262936
1010.37 1.19789e-08 1.0023 0.259599
1010.31 1.19009e-08 1.00229 0.256492
1010.11 1.08391e-08 1.00224 0.265625
1010.63 1.22013e-08 1.00233 0.264977
1000 0 1.00149 0.266646
1000 0 1.00148 0.266458
1009.86 1.10476e-08 1.00221 0.265435
1000 0 1.00148 0.26717
1009.88 1.07319e-08 1.00223 0.265164
1009.83 1.08565e-08 1.00222 0.265281
1010.55 1.21312e-08 1.00232 0.263315
1000 0 1.00148 0.267244
1010.16 1.07861e-08 1.00224 0.265972
1009.72 1.11332e-08 1.00214 0.265505
1009.78 1.09841e-08 1.00214 0.265346
1010.53 1.21228e-08 1.00231 0.262834
1010 1.0748e-08 1.00223 0.265339
1010.54 1.21256e-08 1.00232 0.263109
1010.57 1.21401e-08 1.00232 0.263406
1010.4 1.20128e-08 1.0023 0.260853
1010.04 1.07399e-08 1.00224 0.265489
1010.24 1.08005e-08 1.00225 0.266118
1010.63 1.21897e-08 1.00233 0.265403
1010.5 1.21249e-08 1.00231 0.262973
1010.52 1.21281e-08 1.00231 0.262835
1010.33 1.19327e-08 1.00229 0.259298
1010.6 1.21628e-08 1.00233 0.26403
1010.38 1.19866e-08 1.0023 0.259644
1010.41 1.20368e-08 1.00231 0.261565
1010.35 1.19468e-08 1.0023 0.258636
1000 0 1.00149 0.267499
1000 0 1.00148 0.267459
1000 0 1.00148 0.267412
1010.2 1.08532e-08 1.00225 0.26595
1000 0 1.00149 0.267202
1000 0 1.00148 0.266774
1000 0 1.00148 0.266915
1009.83 1.11458e-08 1.00221 0.265981
1009.77 1.11144e-08 1.0022 0.266105
1000 0 1.00148 0.267001
1000 0 1.00148 0.266997
1009.71 1.11147e-08 1.0022 0.266088
1009.78 1.11566e-08 1.00213 0.265907
1010.51 1.21101e-08 1.0023 0.263762
1009.68 1.11654e-08 1.00221 0.265789
1010.51 1.21175e-08 1.00231 0.263505
1009.72 1.1076e-08 1.0022 0.266105
1010.48 1.21097e-08 1.0023 0.263802
1010.49 1.21183e-08 1.0023 0.2637
1010.32 1.19077e-08 1.00229 0.262014
1010.49 1.21228e-08 1.00231 0.263249
1010.32 1.19098e-08 1.00229 0.261036
1000 0 1.00148 0.26698
1000 0 1.00179 0.267545
1009.76 1.10914e-08 1.0022 0.266014
1009.8 1.111e-08 1.00205 0.26574
1000 0 1.00149 0.266762
1009.94 1.0896e-08 1.00207 0.265326
1009.83 1.10706e-08 1.00205 0.265459
1010.49 1.21216e-08 1.00231 0.263301
1010.52 1.21296e-08 1.00232 0.263005
1010.55 1.21439e-08 1.00232 0.262727
1010.35 1.19581e-08 1.0023 0.259552
1009.67 1.11047e-08 1.0022 0.26612
1009.76 1.11299e-08 1.00205 0.265996
1010.51 1.21094e-08 1.0023 0.263799
1010.51 1.21153e-08 1.00231 0.263626
1000 0 1.00148 0.266952
1010.03 1.08954e-08 1.00215 0.265109
1010.56 1.21526e-08 1.00232 0.262937
1010.52 1.21218e-08 1.00231 0.263072
1010.32 1.19163e-08 1.00229 0.260608
1010.37 1.19795e-08 1.0023 0.259526
1010.34 1.19407e-08 1.00229 0.259769
1010.31 1.1901e-08 1.00229 0.256545
1010.15 1.08634e-08 1.00224 0.265482
1010.62 1.21973e-08 1.00233 0.26499
1010.48 1.211e-08 1.0023 0.263845
1010.49 1.21163e-08 1.0023 0.263792
1010.32 1.19095e-08 1.00229 0.26211
1010.32 1.19099e-08 1.00229 0.260918
1010.33 1.19266e-08 1.00229 0.260018
1010.29 1.18699e-08 1.00228 0.258266
1010.04 1.08418e-08 1.00224 0.265246
1010.3 1.1887e-08 1.00229 0.256665
1010.59 1.21756e-08 1.00232 0.263468
1010.39 1.20043e-08 1.0023 0.260113
1010.33 1.19175e-08 1.0023 0.256498
1010.31 1.18969e-08 1.00229 0.254815
1010.62 1.21937e-08 1.00233 0.264408
1010.63 1.2209e-08 1.00233 0.26572
1010.44 1.20866e-08 1.00231 0.26389
1009.87 1.11102e-08 1.00221 0.265615
1000 0 1.00148 0.267373
1010.15 1.07709e-08 1.00224 0.26616
1009.84 1.09573e-08 1.00222 0.265322
1010.51 1.21263e-08 1.00231 0.262859
1009.95 1.07205e-08 1.00223 0.265481
1010.58 1.21437e-08 1.00232 0.263462
1010.54 1.21299e-08 1.00232 0.263174
1010.4 1.20117e-08 1.0023 0.260651
1010.07 1.07621e-08 1.00224 0.265664
1010.25 1.08135e-08 1.00225 0.266211
1010.63 1.2187e-08 1.00233 0.265474
1010.52 1.21215e-08 1.00231 0.262969
1010.53 1.21243e-08 1.00231 0.262879
1010.33 1.19332e-08 1.00229 0.259314
1010.59 1.21598e-08 1.00233 0.264067
1010.38 1.19872e-08 1.0023 0.259825
1010.41 1.20373e-08 1.00231 0.261609
1010.35 1.1947e-08 1.0023 0.258168
1010.33 1.08323e-08 1.00226 0.266233
1010.62 1.21767e-08 1.00233 0.264849
1010.63 1.21963e-08 1.00233 0.266187
1010.45 1.21021e-08 1.00232 0.264334
1010.32 1.19164e-08 1.00229 0.259627
1010.35 1.19595e-08 1.0023 0.259281
1010.3 1.18606e-08 1.00229 0.255865
1010.43 1.20634e-08 1.00231 0.262618
1010.33 1.19135e-08 1.00229 0.255595
1010.37 1.19673e-08 1.0023 0.259244
1010.35 1.19297e-08 1.0023 0.256614
1010.62 1.22133e-08 1.00233 0.267017
1010.49 1.0893e-08 1.00227 0.26616
1000 0 1.00149 0.267496
1000 0 1.00149 0.267472
1000 0 1.00148 0.267438
1010.29 1.08846e-08 1.00225 0.266121
1000 0 1.00149 0.267316
1010.22 1.08717e-08 1.00225 0.265804
1000 0 1.00149 0.26711
1009.85 1.11419e-08 1.00221 0.265813
1009.8 1.11337e-08 1.00221 0.266071
1010.49 1.21213e-08 1.00231 0.263487
1010.48 1.21139e-08 1.0023 0.263761
1009.74 1.10924e-08 1.0022 0.266116
1000 0 1.00148 0.267
1009.43 1.11007e-08 1.0022 0.266108
1010.47 1.21062e-08 1.0023 0.263802
1010.49 1.21147e-08 1.0023 0.263681
1010.32 1.19079e-08 1.00229 0.262005
1010.52 1.21193e-08 1.00231 0.26323
1010.32 1.191e-08 1.00229 0.261068
1010.47 1.21084e-08 1.0023 0.26383
1010.32 1.19075e-08 1.00229 0.262204
1010.32 1.19099e-08 1.00229 0.261699
1010.28 1.18522e-08 1.00228 0.260192
1010.32 1.19107e-08 1.00229 0.260278
1010.29 1.18647e-08 1.00228 0.258798
1009.72 1.10824e-08 1.0022 0.266093
1009.78 1.11069e-08 1.00205 0.265823
1010.48 1.21131e-08 1.0023 0.263745
1010.49 1.2119e-08 1.00231 0.263624
1000 0 1.00148 0.26688
1009.99 1.08646e-08 1.00208 0.26505
1010.57 1.21575e-08 1.00233 0.26293
1010.5 1.21252e-08 1.00231 0.26302
1010.33 1.1916e-08 1.00229 0.260401
1010.34 1.19405e-08 1.0023 0.259837
1010.37 1.19789e-08 1.0023 0.259425
1010.31 1.19009e-08 1.00229 0.256589
1010.11 1.08391e-08 1.00224 0.265353
1010.63 1.22013e-08 1.00233 0.264997
1010.48 1.21065e-08 1.0023 0.26381
1010.48 1.21129e-08 1.00231 0.26376
1010.32 1.19096e-08 1.00229 0.26206
1010.32 1.19101e-08 1.00229 0.26109
1010.08 1.08702e-08 1.00224 0.265159
1010.58 1.2171e-08 1.00232 0.263371
1010.39 1.20051e-08 1.0023 0.260176
1010.33 1.19269e-08 1.00229 0.26012
1010.29 1.18696e-08 1.00228 0.258013
1010.33 1.19177e-08 1.00229 0.256184
1010.3 1.1887e-08 1.00229 0.256679
1010.31 1.18967e-08 1.00229 0.254682
1010.61 1.21907e-08 1.00233 0.264522
1010.44 1.20866e-08 1.00231 0.26404
1010.62 1.22056e-08 1.00233 0.265601
1010.32 1.19077e-08 1.00229 0.262303
1010.32 1.19102e-08 1.00229 0.261622
1010.28 1.18628e-08 1.00228 0.260456
1010.28 1.18629e-08 1.00228 0.258584
1010.29 1.18751e-08 1.00229 0.256954
1010.28 1.1866e-08 1.00228 0.255641
1010.61 1.21861e-08 1.00233 0.263991
1010.3 1.18822e-08 1.00229 0.254326
1010.41 1.20338e-08 1.00231 0.261675
1010.35 1.19379e-08 1.0023 0.255776
1010.32 1.19074e-08 1.00229 0.253991
1010.3 1.18959e-08 1.00229 0.252989
1010.63 1.22159e-08 1.00233 0.266256
1010.44 1.20749e-08 1.00231 0.26356
1010.44 1.20941e-08 1.00232 0.264534
1010.42 1.20296e-08 1.00231 0.263198
1010.5 1.21249e-08 1.00231 0.262971
1010.24 1.08005e-08 1.00225 0.266287
1010.04 1.07399e-08 1.00224 0.265865
1010.63 1.21897e-08 1.00233 0.265537
1010.52 1.21281e-08 1.00231 0.262927
1010.33 1.19327e-08 1.00229 0.259326
1010.6 1.21628e-08 1.00233 0.264102
1010.41 1.20368e-08 1.00231 0.261644
1010.38 1.19866e-08 1.0023 0.26001
1010.35 1.19468e-08 1.0023 0.257734
1010.33 1.08425e-08 1.00226 0.266271
1010.61 1.21739e-08 1.00233 0.264817
1010.63 1.21942e-08 1.00233 0.266308
1010.45 1.21025e-08 1.00232 0.264347
1010.32 1.19167e-08 1.00229 0.25964
1010.35 1.19602e-08 1.0023 0.259322
1010.3 1.18605e-08 1.00229 0.255864
1010.43 1.20651e-08 1.00231 0.262735
1010.33 1.19139e-08 1.0023 0.255934
1010.37 1.1967e-08 1.0023 0.259046
1010.35 1.19302e-08 1.0023 0.256739
1010.41 1.08599e-08 1.00226 0.266227
1010.63 1.21999e-08 1.00233 0.266828
1010.45 1.20867e-08 1.00231 0.263804
1010.45 1.21081e-08 1.00232 0.265057
1010.44 1.20448e-08 1.00232 0.263259
1010.29 1.18427e-08 1.00228 0.256349
1010.31 1.1882e-08 1.00229 0.255229
1010.31 1.19888e-08 1.00229 0.253141
1010.4 1.1996e-08 1.00231 0.259948
1010.33 1.19182e-08 1.00229 0.252624
1010.36 1.19259e-08 1.0023 0.256425
1010.62 1.22069e-08 1.00233 0.267069
1010.43 1.20989e-08 1.00232 0.267051
1010.61 1.22208e-08 1.00233 0.266991
1010.62 1.22119e-08 1.00233 0.267023
1010.56 1.09274e-08 1.00211 0.266458
1010.49 1.09028e-08 1.00218 0.266428
1000 0 1.00182 0.266774
1000 0 1.00149 0.267478
1000 0 1.00149 0.267453
1010.4 1.09302e-08 1.00226 0.266241
1000 0 1.00149 0.267406
1010.31 1.09003e-08 1.00226 0.266028
1000 0 1.00149 0.26726
1010.2 1.08532e-08 1.00225 0.265683
1000 0 1.00148 0.267045
1010.49 1.21228e-08 1.00231 0.263213
1010.49 1.21183e-08 1.0023 0.263668
1010.32 1.19098e-08 1.00229 0.261081
1010.32 1.19077e-08 1.00229 0.261996
1010.48 1.21097e-08 1.0023 0.263799
1009.72 1.1076e-08 1.0022 0.266087
1010.51 1.21045e-08 1.0023 0.263829
1010.32 1.19074e-08 1.00229 0.262197
1010.32 1.19102e-08 1.00229 0.261654
1010.28 1.18516e-08 1.00228 0.260082
1010.32 1.19111e-08 1.00229 0.260277
1010.29 1.18644e-08 1.00228 0.258825
1010.32 1.19088e-08 1.00228 0.262266
1010.28 1.18294e-08 1.00228 0.260662
1010.28 1.1854e-08 1.00228 0.259566
1010.29 1.19153e-08 1.00228 0.259016
1010.29 1.18575e-08 1.00228 0.257399
1010.28 1.18652e-08 1.00228 0.256036
1010.48 1.211e-08 1.0023 0.263781
1010.49 1.21163e-08 1.00231 0.263744
1010.32 1.19095e-08 1.00229 0.261988
1010.32 1.19099e-08 1.00229 0.261271
1010.04 1.08418e-08 1.00224 0.265069
1010.59 1.21756e-08 1.00233 0.263273
1010.39 1.20043e-08 1.0023 0.260262
1010.33 1.19266e-08 1.00229 0.260231
1010.29 1.18699e-08 1.00228 0.257762
1010.3 1.1887e-08 1.00229 0.256693
1010.33 1.19175e-08 1.00229 0.255913
1010.31 1.18969e-08 1.00229 0.254572
1010.62 1.21937e-08 1.00233 0.264622
1010.44 1.20866e-08 1.00231 0.264133
1010.63 1.2209e-08 1.00233 0.26551
1010.32 1.19077e-08 1.00229 0.262267
1010.32 1.19104e-08 1.00229 0.261567
1010.28 1.18623e-08 1.00228 0.260311
1010.28 1.18625e-08 1.00228 0.258714
1010.6 1.21828e-08 1.00233 0.263998
1010.41 1.20336e-08 1.00231 0.261567
1010.35 1.19388e-08 1.0023 0.256075
1010.29 1.18749e-08 1.00229 0.257157
1010.28 1.18656e-08 1.00228 0.255495
1010.32 1.1907e-08 1.00229 0.253746
1010.3 1.18819e-08 1.00229 0.254353
1010.3 1.18957e-08 1.00229 0.253115
1010.44 1.20765e-08 1.00231 0.263483
1010.42 1.20302e-08 1.00231 0.263127
1010.62 1.22133e-08 1.00233 0.266221
1010.44 1.20944e-08 1.00232 0.264741
1010.28 1.18426e-08 1.00228 0.26072
1010.28 1.18517e-08 1.00228 0.259618
1010.28 1.18726e-08 1.00228 0.259234
1010.28 1.187e-08 1.00228 0.255724
1010.29 1.18782e-08 1.00228 0.254848
1010.28 1.18667e-08 1.00228 0.254446
1010.43 1.20573e-08 1.00231 0.262984
1010.29 1.18952e-08 1.00228 0.252344
1010.37 1.19677e-08 1.0023 0.257695
1010.34 1.19151e-08 1.0023 0.252617
1010.32 1.1942e-08 1.00229 0.252403
1010.28 1.18373e-08 1.00229 0.25265
1010.62 1.2223e-08 1.00233 0.266641
1010.44 1.20963e-08 1.00232 0.265148
1010.41 1.20137e-08 1.00231 0.262509
1010.44 1.20466e-08 1.00232 0.263501
1010.42 1.2027e-08 1.00231 0.2623
1010.33 1.08323e-08 1.00226 0.266316
1010.32 1.19164e-08 1.00229 0.259659
1010.63 1.21963e-08 1.00233 0.266442
1010.62 1.21767e-08 1.00233 0.264768
1010.45 1.21021e-08 1.00232 0.264355
1010.35 1.19595e-08 1.0023 0.259353
1010.3 1.18606e-08 1.00229 0.25586
1010.43 1.20634e-08 1.00231 0.262862
1010.37 1.19673e-08 1.0023 0.258722
1010.33 1.19135e-08 1.0023 0.256265
1010.35 1.19297e-08 1.0023 0.256811
1010.41 1.08693e-08 1.00226 0.266234
1010.63 1.21982e-08 1.00233 0.266903
1010.45 1.20886e-08 1.00231 0.263815
1010.45 1.21086e-08 1.00232 0.265176
1010.44 1.20451e-08 1.00232 0.26324
1010.29 1.18431e-08 1.00228 0.256296
1010.31 1.18816e-08 1.00229 0.255225
1010.31 1.19893e-08 1.00229 0.253072
1010.4 1.19967e-08 1.00231 0.260122
1010.33 1.19175e-08 1.00229 0.252941
1010.36 1.19266e-08 1.0023 0.25638
1010.63 1.22027e-08 1.00233 0.267049
1010.45 1.21076e-08 1.00232 0.266025
1010.42 1.20229e-08 1.00231 0.261838
1010.45 1.20625e-08 1.00232 0.264009
1010.44 1.20367e-08 1.00232 0.262653
1010.3 1.20621e-08 1.00228 0.254552
1010.31 1.18985e-08 1.00229 0.251833
1010.22 1.15639e-08 1.00228 0.250561
1010.38 1.19479e-08 1.00231 0.256678
1010.35 1.20335e-08 1.00229 0.252668
1010.62 1.22056e-08 1.00233 0.267088
1010.44 1.21003e-08 1.00232 0.267032
1010.44 1.20995e-08 1.00232 0.267028
1010.45 1.20612e-08 1.00232 0.266258
1010.43 1.20987e-08 1.00232 0.266987
1010.61 1.22294e-08 1.00233 0.266997
1010.61 1.22192e-08 1.00233 0.266986
1010.63 1.0972e-08 1.00211 0.266442
1010.62 1.22133e-08 1.00233 0.267028
1010.56 1.09357e-08 1.00211 0.266606
1000 0 1.00182 0.266745
1010.49 1.0893e-08 1.0021 0.266591
1000 0 1.00165 0.26691
1000 0 1.00149 0.267463
1010.5 1.09749e-08 1.00227 0.266344
1010.41 1.09405e-08 1.00226 0.266154
1000 0 1.00149 0.267439
1000 0 1.00149 0.267367
1010.29 1.08846e-08 1.00226 0.265921
1000 0 1.00149 0.267176
1010.32 1.19107e-08 1.00229 0.260271
1010.32 1.19099e-08 1.00229 0.261631
1010.29 1.18647e-08 1.00228 0.25886
1010.28 1.18522e-08 1.00228 0.259971
1010.32 1.19075e-08 1.00229 0.262189
1010.47 1.21084e-08 1.0023 0.263823
1010.32 1.19089e-08 1.00228 0.262269
1010.28 1.18291e-08 1.00228 0.2607
1010.28 1.18535e-08 1.00228 0.25957
1010.29 1.19155e-08 1.00228 0.258882
1010.29 1.18572e-08 1.00228 0.257365
1010.28 1.1865e-08 1.00228 0.256133
1010.27 1.1812e-08 1.00228 0.260918
1010.3 1.19988e-08 1.00228 0.259774
1010.29 1.19343e-08 1.00228 0.257471
1010.28 1.19975e-08 1.00228 0.258074
1010.29 1.1927e-08 1.00228 0.255863
1010.3 1.20115e-08 1.00228 0.254663
1010.32 1.19077e-08 1.00229 0.262232
1010.32 1.19102e-08 1.00229 0.261481
1010.28 1.18628e-08 1.00228 0.260174
1010.28 1.18629e-08 1.00228 0.258849
1010.61 1.21861e-08 1.00233 0.263999
1010.41 1.20338e-08 1.00231 0.261462
1010.35 1.19379e-08 1.0023 0.25636
1010.29 1.18751e-08 1.00229 0.257354
1010.28 1.1866e-08 1.00228 0.255361
1010.3 1.18822e-08 1.00229 0.254382
1010.32 1.19074e-08 1.00229 0.253436
1010.3 1.18959e-08 1.00229 0.2532
1010.44 1.20749e-08 1.00231 0.263435
1010.42 1.20296e-08 1.00231 0.263103
1010.63 1.22159e-08 1.00233 0.266167
1010.44 1.20941e-08 1.00232 0.264844
1010.28 1.18423e-08 1.00228 0.260727
1010.28 1.18515e-08 1.00228 0.259607
1010.28 1.18729e-08 1.00228 0.25918
1010.28 1.18703e-08 1.00228 0.255952
1010.43 1.20589e-08 1.00231 0.262885
1010.37 1.1968e-08 1.0023 0.258019
1010.34 1.19147e-08 1.0023 0.25245
1010.29 1.18782e-08 1.00228 0.25501
1010.28 1.18671e-08 1.00228 0.254371
1010.32 1.19418e-08 1.00229 0.252212
1010.29 1.18952e-08 1.00228 0.252353
1010.28 1.18368e-08 1.00229 0.252735
1010.41 1.20142e-08 1.00231 0.26244
1010.42 1.20252e-08 1.00231 0.262182
1010.44 1.20468e-08 1.00232 0.263544
1010.62 1.22206e-08 1.00233 0.266578
1010.44 1.20965e-08 1.00232 0.265161
1010.3 1.19995e-08 1.00228 0.25958
1010.29 1.19038e-08 1.00228 0.257913
1010.27 1.18438e-08 1.00228 0.253796
1010.27 1.1859e-08 1.00228 0.253355
1010.4 1.19966e-08 1.00231 0.261039
1010.27 1.17993e-08 1.00228 0.249986
1010.36 1.19365e-08 1.0023 0.254225
1010.34 1.20187e-08 1.00229 0.249662
1010.29 1.18306e-08 1.00229 0.251201
1010.62 1.22309e-08 1.00233 0.266839
1010.44 1.20987e-08 1.00232 0.265609
1010.45 1.20469e-08 1.00232 0.264311
1010.41 1.20068e-08 1.00231 0.261189
1010.44 1.20444e-08 1.00231 0.262477
1010.42 1.20316e-08 1.00231 0.260721
1010.41 1.08599e-08 1.00226 0.266211
1010.63 1.21999e-08 1.00233 0.266975
1010.29 1.18427e-08 1.00228 0.256239
1010.45 1.21081e-08 1.00232 0.265292
1010.45 1.20867e-08 1.00231 0.263826
1010.44 1.20448e-08 1.00231 0.263222
1010.31 1.1882e-08 1.00229 0.255226
1010.31 1.19888e-08 1.00229 0.253013
1010.4 1.1996e-08 1.00231 0.260316
1010.36 1.19259e-08 1.0023 0.256388
1010.33 1.19182e-08 1.00229 0.253244
1010.62 1.22009e-08 1.00233 0.267095
1010.45 1.21079e-08 1.00232 0.266094
1010.42 1.20238e-08 1.00231 0.261974
1010.45 1.20624e-08 1.00232 0.264104
1010.44 1.20373e-08 1.00231 0.26247
1010.3 1.20595e-08 1.00228 0.254493
1010.31 1.19019e-08 1.00229 0.251875
1010.22 1.15603e-08 1.00228 0.250509
1010.38 1.19489e-08 1.00231 0.256536
1010.35 1.20369e-08 1.0023 0.252527