# vtk DataFile Version 2.0
Wound Healing Simulation
ASCII
DATASET UNSTRUCTURED_GRID
POINTS 3012 float
69.9759 18.75 4
67.2507 60.3285 4
69.976 18.75 2
73.0099 25.446 4
71.1327 20.9142 4
68.6801 16.6661 4
67.827 19.9258 3.98569
67.2507 60.3286 2
71.1327 54.0858 4
68.6801 58.3339 4
65.6939 62.2254 4
65.3136 59.0028 3.98675
74.6784 42.3946 4
73.7221 47.2057 4
69.9759 18.75 0
73.0099 25.446 2
68.6801 16.6661 2
71.1327 20.9142 2
67.8275 19.928 2
74.6792 32.6053 4
73.7222 27.7943 4
72.1454 23.1494 4
70.6152 26.2217 3.98508
68.8871 21.9586 3.9855
67.2507 14.6715 4
66.6387 17.9706 3.98629
65.8007 21.0238 3.97878
67.2507 60.3285 0
71.1327 54.0858 2
68.6801 58.3339 2
65.694 62.2255 2
65.3146 59.0012 2
72.1454 51.8506 4
69.9759 56.25 4
68.8375 53.1128 3.98465
64.0165 64.0165 4
66.6121 57.1349 3.98635
63.8871 60.7676 3.9884
63.5037 57.7757 3.98108
60.3285 67.2507 4
74.6792 42.3947 2
73.7222 47.2057 2
74.9194 39.9526 4
74.2788 44.8158 4
72.1687 42.0857 3.98318
73.0099 49.554 4
71.2502 46.5981 3.98428
73.0099 25.446 0
71.1327 20.9142 0
68.6801 16.6661 0
67.827 19.9258 0.0143111
74.6792 32.6053 2
73.7222 27.7943 2
67.2508 14.6715 2
72.1455 23.1494 2
70.6153 26.2223 2
66.6395 17.9725 2
68.8873 21.9605 2
65.8005 21.0236 2
74.9197 35.0474 4
74.2794 30.1841 4
72.1854 32.9433 3.98355
71.2792 28.4317 3.98479
69.8167 24.0606 3.98522
68.3494 26.9514 3.97623
66.7655 22.9329 3.97736
65.694 12.7746 4
65.3253 16.1015 3.98753
64.7177 19.1917 3.98039
63.8914 22.0329 3.97483
71.1327 54.0858 0
65.6939 62.2254 0
68.6801 58.3339 0
65.3136 59.0028 0.0132519
72.1455 51.8506 2
69.9759 56.25 2
68.8378 53.1107 2
64.0165 64.0165 2
66.613 57.1327 2
63.888 60.7668 2
63.5039 57.7766 2
62.2254 65.694 4
58.8951 65.4152 3.99251
69.7699 50.9884 3.98436
67.785 55.1677 3.98539
66.6518 52.2099 3.97633
62.3373 62.4289 3.9903
64.6645 56.0346 3.98055
62.2055 59.4091 3.98216
61.8275 56.6869 3.97775
58.3339 68.6801 4
60.3285 67.2508 2
73.7221 47.2057 0
74.6784 42.3946 0
74.9197 39.9526 2
74.2794 44.8159 2
72.1686 42.0856 2
73.0099 49.554 2
71.2503 46.5977 2
75 37.5 4
72.4058 39.8023 3.98293
71.7833 44.3531 3.9838
69.8055 41.7901 3.97427
70.576 48.8132 3.98433
68.9146 46.0156 3.97541
74.6792 32.6053 0
73.7222 27.7943 0
67.2507 14.6715 0
72.1454 23.1494 0
70.6152 26.2217 0.0149247
68.8871 21.9586 0.0145048
66.6387 17.9706 0.0137133
65.8007 21.0238 0.0212202
74.9197 35.0474 2
74.2794 30.1841 2
72.1852 32.9434 2
71.2792 28.4319 2
65.694 12.7745 2
65.3261 16.1026 2
69.8168 24.0618 2
68.3492 26.9516 2
64.7178 19.191 2
66.7652 22.933 2
63.8913 22.0325 2
72.4136 35.2242 3.98294
71.8046 30.6764 3.98403
69.8415 33.2682 3.97482
68.9687 29.0379 3.97611
67.6137 24.9121 3.97639
66.1976 27.6338 3.97294
64.0165 10.9835 4
64.7599 23.829 3.97359
63.8914 14.3252 3.98891
63.517 17.442 3.98232
62.9121 20.316 3.97621
62.0969 22.9404 3.97262
60.6848 11.0961 3.99105
57.6132 11.4426 3.98548
72.1454 51.8506 0
69.9759 56.25 0
68.8375 53.1128 0.0153493
64.0165 64.0165 0
63.8871 60.7676 0.0116042
66.6121 57.1349 0.0136532
63.5037 57.7757 0.018918
62.2255 65.694 2
58.8955 65.4152 2
69.7701 50.987 2
67.7856 55.1653 2
66.6516 52.2097 2
62.338 62.4284 2
64.6646 56.0352 2
62.2057 59.4101 2
61.8277 56.688 2
60.6697 63.9782 3.99155
57.0258 66.736 3.99312
57.5591 63.6955 3.98686
67.5094 50.1772 3.9753
65.705 54.1749 3.97816
64.54 51.3871 3.97209
60.7749 60.9426 3.98362
62.825 55.0726 3.97739
60.6619 58.166 3.97828
60.3326 55.7922 3.97678
56.25 69.9759 4
58.3339 68.6801 2
60.3285 67.2507 0
58.922 9.65451 3.99182
62.2254 9.30607 4
73.0099 49.554 0
74.2788 44.8158 0
71.2502 46.5981 0.0157247
72.1687 42.0857 0.0168185
74.9194 39.9526 0
75 37.5 2
72.4057 39.8024 2
71.7833 44.3527 2
69.8053 41.79 2
70.5761 48.8124 2
68.9146 46.0153 2
72.4891 37.5121 3.98273
70.0421 39.6576 3.9736
69.4323 43.9082 3.97495
67.599 41.4985 3.97077
68.268 48.1078 3.97526
66.7127 45.4417 3.97197
74.9197 35.0474 0
74.2794 30.1841 0
72.1854 32.9433 0.0164489
71.2792 28.4317 0.0152085
65.694 12.7746 0
65.3253 16.1015 0.0124726
69.8167 24.0606 0.0147774
68.3494 26.9514 0.0237704
66.7655 22.9329 0.0226381
64.7177 19.1917 0.0196148
63.8914 22.0329 0.0251707
72.4136 35.2241 2
71.8047 30.6765 2
69.8414 33.2684 2
68.9688 29.0381 2
64.0165 10.9835 2
63.8921 14.3258 2
63.5172 17.441 2
67.6135 24.9124 2
66.1975 27.6337 2
62.9123 20.3152 2
64.7597 23.8287 2
62.0968 22.94 2
60.6853 11.0966 2
57.6134 11.4418 2
70.0588 35.3919 3.97382
69.4689 31.1493 3.97514
67.6573 33.5904 3.9714
66.7754 29.6217 3.97235
65.5267 25.6987 3.97291
64.1494 28.2541 3.97211
62.3426 12.6533 3.99
62.8597 24.6358 3.9717
62.2018 15.7794 3.98345
61.8188 18.6784 3.9784
61.2225 21.337 3.97359
60.4286 23.7246 3.97206
59.2474 12.774 3.9839
55.8751 10.2293 3.98698
56.4062 13.1066 3.98224
69.7699 50.9884 0.0156371
62.2254 65.694 0
58.8951 65.4152 0.00749455
67.785 55.1677 0.0146069
66.6518 52.2099 0.0236705
62.3373 62.4289 0.00970499
62.2055 59.4091 0.0178406
64.6645 56.0346 0.0194455
61.8275 56.6869 0.0222456
60.6702 63.9779 2
57.0261 66.7361 2
57.5591 63.6965 2
67.5093 50.1768 2
65.705 54.1751 2
64.5398 51.3872 2
60.7751 60.9436 2
62.8251 55.0735 2
60.6621 58.1671 2
60.3329 55.793 2
55.0712 67.933 3.99338
59.2206 62.3704 3.98467
55.8057 64.9132 3.98881
56.3282 62.0959 3.98324
65.3336 49.4097 3.97136
63.7094 53.2951 3.974
62.4429 50.6544 3.97007
59.3358 59.5636 3.98088
61.0817 54.3145 3.97624
59.2928 57.0193 3.97539
59.2466 55.189 3.97796
48.1037 68.5809 3.98993
50.9488 69.9326 3.99373
54.0858 71.1327 4
56.25 69.976 2
58.3339 68.6801 0
57.0592 8.33457 3.99213
60.3285 7.74928 4
58.9225 9.6547 2
62.2255 9.30602 2
70.576 48.8132 0.0156719
71.7833 44.3531 0.0162021
68.9146 46.0156 0.0245929
69.8055 41.7901 0.0257285
72.4058 39.8023 0.0170719
75 37.5 0
72.489 37.5121 2
70.0421 39.6576 2
69.4323 43.908 2
67.5988 41.4985 2
68.268 48.1074 2
66.7126 45.4417 2
70.1301 37.5216 3.97366
67.8355 39.5129 3.97019
67.226 43.4714 3.97128
65.5576 41.211 3.97021
66.0711 47.4197 3.972
64.6553 44.8507 3.97065
72.4136 35.2242 0.0170614
71.8046 30.6764 0.0159662
69.8415 33.2682 0.02518
68.9687 29.0379 0.0238863
64.0165 10.9835 0
63.8914 14.3252 0.0110941
63.517 17.442 0.017675
67.6137 24.9121 0.0236079
66.1976 27.6338 0.0270594
64.7599 23.829 0.0264069
62.9121 20.316 0.0237862
62.0969 22.9404 0.0273832
60.6848 11.0961 0.00895398
57.6132 11.4426 0.0145164
70.0588 35.3921 2
69.469 31.1494 2
67.6572 33.5904 2
66.7754 29.6216 2
62.3432 12.6538 2
62.2018 15.7786 2
61.819 18.6773 2
65.5265 25.6986 2
64.1493 28.2539 2
61.2228 21.3363 2
62.8595 24.6356 2
60.4286 23.7243 2
59.2475 12.7735 2
56.4062 13.1056 2
55.8752 10.2285 2
67.8715 35.5474 3.97042
67.2674 31.6218 3.97139
65.6997 33.9267 3.97057
64.666 30.1907 3.97088
63.5405 26.4131 3.97178
62.2605 28.7759 3.97218
60.777 14.2186 3.9836
61.0465 25.3359 3.97122
60.6165 17.1208 3.98066
60.2274 19.81 3.97568
59.6649 22.2542 3.97179
58.9797 24.3171 3.97291
54.0382 9.1325 3.98771
57.9117 14.3254 3.98194
54.7875 12.0058 3.98363
55.3135 14.6383 3.98076
67.5094 50.1772 0.0247015
57.0258 66.736 0.00688395
60.6697 63.9782 0.00844718
57.5591 63.6955 0.0131398
65.705 54.1749 0.0218381
64.54 51.3871 0.0279061
60.7749 60.9426 0.0163842
60.6619 58.166 0.0217178
62.825 55.0726 0.0226131
60.3326 55.7922 0.0232159
55.0715 67.9331 2
59.2207 62.3714 2
55.8056 64.9141 2
56.3282 62.0971 2
65.3335 49.4097 2
63.7095 53.2957 2
62.4428 50.6545 2
59.336 59.5649 2
61.082 54.3153 2
59.2931 57.0201 2
59.2471 55.1896 2
53.043 69.0008 3.99361
53.968 66.0154 3.98945
57.8823 60.8761 3.98208
54.685 63.2129 3.98515
55.2127 60.6234 3.98147
63.1952 48.6635 3.97003
61.7437 52.5785 3.97171
60.2728 50.0226 3.96894
58.0208 58.268 3.97763
59.331 53.9523 3.97572
58.1298 55.8176 3.97344
50.1104 67.8589 3.98987
47.4643 66.585 3.98758
46.0573 69.1604 3.99003
48.1037 68.5814 2
48.8029 70.7239 3.99382
50.9491 69.9328 2
51.8506 72.1454 4
54.0858 71.1327 2
56.25 69.9759 0
55.1035 7.13909 3.99242
58.3339 6.31992 4
57.0596 8.33455 2
60.3286 7.74926 2
58.922 9.65451 0.00817641
62.2254 9.30607 0
68.268 48.1078 0.0247428
69.4323 43.9082 0.025048
66.7127 45.4417 0.0280293
67.599 41.4985 0.0292263
70.0421 39.6576 0.0263965
72.4891 37.5121 0.0172686
70.1301 37.5217 2
67.8354 39.5129 2
67.2259 43.4714 2
65.5574 41.211 2
66.071 47.4196 2
64.6552 44.8508 2
67.9317 37.5222 3.97024
65.7886 39.371 3.96986
65.1784 43.0271 3.97036
63.7548 40.931 3.9711
63.9679 46.7194 3.97073
62.8105 44.2191 3.97176
70.0588 35.3919 0.0261814
69.4689 31.1493 0.0248598
67.6573 33.5904 0.0285962
66.7754 29.6217 0.0276486
62.3426 12.6533 0.00999512
62.2018 15.7794 0.0165501
61.8188 18.6784 0.0216047
65.5267 25.6987 0.0270886
64.1494 28.2541 0.0278904
62.8597 24.6358 0.0283032
61.2225 21.337 0.0264128
60.4286 23.7246 0.027938
59.2474 12.774 0.0160993
56.4062 13.1066 0.0177604
55.8751 10.2293 0.0130188
67.8715 35.5474 2
67.2675 31.6217 2
65.6996 33.9266 2
64.6661 30.1905 2
60.777 14.218 2
60.6165 17.1198 2
60.2279 19.809 2
63.5403 26.413 2
62.2604 28.7758 2
59.6652 22.2536 2
61.0465 25.3358 2
58.9798 24.317 2
57.9115 14.3247 2
55.3133 14.6374 2
54.0382 9.13183 2
54.7875 12.0048 2
65.8772 35.6667 3.96984
65.1879 32.1534 3.97018
64.285 34.2494 3.97073
62.5981 30.6343 3.97139
61.6531 27.0704 3.97158
60.8533 29.1384 3.97304
59.3128 15.6622 3.9817
59.3308 25.7939 3.97221
59.1273 18.3482 3.9789
58.7436 20.8484 3.97281
58.2867 23.0886 3.97113
57.9682 24.6617 3.9756
52.1128 8.15086 3.98828
53.0585 11.012 3.98449
56.6779 15.7349 3.981
53.8101 13.6731 3.98206
54.3772 15.9903 3.98057
55.0712 67.933 0.00662362
65.3336 49.4097 0.0286404
55.8057 64.9132 0.0111878
59.2206 62.3704 0.0153344
56.3282 62.0959 0.0167574
63.7094 53.2951 0.0260023
62.4429 50.6544 0.0299319
59.3358 59.5636 0.0191234
59.2928 57.0193 0.0246086
61.0817 54.3145 0.0237557
59.2466 55.189 0.0220374
53.0433 69.001 2
53.9679 66.0161 2
57.8824 60.8772 2
54.6849 63.214 2
55.2128 60.6248 2
63.1951 48.6635 2
61.7441 52.579 2
60.2726 50.0226 2
58.0213 58.2694 2
59.3315 53.9528 2
58.1303 55.8178 2
52.0715 67.002 3.98974
52.9543 64.2234 3.98661
56.6501 59.4958 3.98022
53.6822 61.6295 3.98304
[...]
POINT_DATA 3012
SCALARS rho_c_phif_kappa float 4
LOOKUP_TABLE default
1000 0 1.00082 0.25018
1000 0 1.00073 0.250414
1000 0 1.00082 0.249964
1000 0 1.00082 0.25023
1000 0 1.00082 0.250145
1000 0 1.00082 0.250201
1005.74 6.57371e-09 1.00089 0.249908
1000 0 1.00073 0.250411
1000 0 1.00074 0.250199
1000 0 1.00074 0.250245
1000 0 1.00082 0.249886
1005.74 6.48305e-09 1.00095 0.24975
1000 0 1.00082 0.25029
1000 0 1.00082 0.250289
1000 0 1.00083 0.249753
1000 0 1.00082 0.250161
1000 0 1.00082 0.249948
1000 0 1.00082 0.249984
1005.75 6.5824e-09 1.00089 0.250027
1000 0 1.00074 0.250463
1000 0 1.00082 0.250325
1000 0 1.00082 0.250157
1005.71 6.61723e-09 1.00089 0.250036
1005.73 6.59297e-09 1.00089 0.249959
1000 0 1.00082 0.250145
1005.76 6.55327e-09 1.00089 0.249821
1005.44 6.34805e-09 1.00095 0.249829
1000 0 1.00073 0.250405
1000 0 1.00078 0.250094
1000 0 1.00078 0.250087
1000 0 1.00073 0.250435
1005.74 6.49119e-09 1.00095 0.249764
1000 0 1.00082 0.249963
1000 0 1.00082 0.249855
1005.74 6.59886e-09 1.0009 0.25
1000 0 1.00073 0.250347
1005.73 6.52038e-09 1.0009 0.249992
1005.76 6.46115e-09 1.00095 0.249865
1005.45 6.37872e-09 1.00095 0.249892
1000 0 1.00073 0.250542
1000 0 1.00074 0.250476
1000 0 1.00078 0.25035
1000 0 1.00074 0.250499
1000 0 1.00082 0.250379
1005.68 6.62284e-09 1.00094 0.250154
1000 0 1.00074 0.250363
1005.72 6.63718e-09 1.0009 0.250107
1000 0 1.00082 0.250111
1000 0 1.00083 0.249821
1000 0 1.00082 0.24971
1005.74 6.57371e-09 1.00089 0.250141
1000 0 1.00078 0.250524
1000 0 1.00082 0.25029
1000 0 1.00082 0.24991
1000 0 1.00082 0.250046
1005.69 6.62442e-09 1.00089 0.250061
1005.76 6.56164e-09 1.00089 0.249958
1005.74 6.60107e-09 1.00089 0.250051
1005.43 6.34556e-09 1.00095 0.249774
1000 0 1.00074 0.250501
1000 0 1.00082 0.250394
1005.67 6.61362e-09 1.0009 0.250186
1005.7 6.62157e-09 1.00089 0.250099
1005.72 6.60829e-09 1.00089 0.249985
1005.41 6.30981e-09 1.00095 0.249615
1005.43 6.33381e-09 1.00095 0.249742
1000 0 1.00082 0.250058
1005.78 6.53343e-09 1.0009 0.249767
1005.44 6.36244e-09 1.00095 0.249826
1005.35 6.2271e-09 1.00094 0.249089
1000 0 1.00074 0.250302
1000 0 1.00073 0.250411
1000 0 1.00074 0.250387
1005.74 6.48305e-09 1.00095 0.249781
1000 0 1.00074 0.25027
1000 0 1.00074 0.250318
1005.74 6.60717e-09 1.00094 0.249925
1000 0 1.00078 0.250104
1005.74 6.52898e-09 1.00095 0.24983
1005.76 6.46774e-09 1.00092 0.249922
1005.45 6.37604e-09 1.00095 0.249909
1000 0 1.00073 0.250505
1005.88 6.46381e-09 1.00095 0.249932
1005.74 6.62324e-09 1.00094 0.250058
1005.73 6.56286e-09 1.00094 0.250021
1005.42 6.32823e-09 1.00095 0.249646
1005.8 6.45034e-09 1.0009 0.250011
1005.45 6.36728e-09 1.00095 0.24985
1005.45 6.38564e-09 1.00095 0.249915
1005.36 6.24895e-09 1.00094 0.249593
1000 0 1.00073 0.250573
1000 0 1.00073 0.250536
1000 0 1.00074 0.250372
1000 0 1.00074 0.250476
1000 0 1.00074 0.250495
1000 0 1.00078 0.250416
1005.65 6.63153e-09 1.00092 0.250115
1000 0 1.00078 0.250247
1005.68 6.64473e-09 1.00092 0.25009
1000 0 1.00074 0.250515
1005.67 6.61136e-09 1.00094 0.250093
1005.7 6.63195e-09 1.0009 0.250118
1005.41 6.30107e-09 1.00094 0.249426
1005.73 6.63564e-09 1.0009 0.250009
1005.41 6.30391e-09 1.00094 0.249607
1000 0 1.00082 0.250286
1000 0 1.00082 0.250283
1000 0 1.00082 0.249675
1000 0 1.00082 0.24994
1005.71 6.61723e-09 1.00089 0.250078
1005.73 6.59297e-09 1.00089 0.25014
1005.76 6.55327e-09 1.00089 0.250089
1005.44 6.34805e-09 1.00095 0.249721
1000 0 1.00074 0.250482
1000 0 1.00082 0.250374
1005.65 6.62245e-09 1.00092 0.250109
1005.66 6.62897e-09 1.00089 0.250115
1000 0 1.00078 0.250107
1005.78 6.5403e-09 1.0009 0.249919
1005.71 6.61573e-09 1.00089 0.250043
1005.42 6.30769e-09 1.00095 0.249575
1005.44 6.35998e-09 1.00095 0.249779
1005.43 6.3313e-09 1.00095 0.249721
1005.35 6.22774e-09 1.00094 0.249083
1005.66 6.60798e-09 1.00094 0.250162
1005.69 6.62021e-09 1.00089 0.250125
1005.41 6.30392e-09 1.00095 0.249485
1005.41 6.30434e-09 1.00095 0.249561
1005.42 6.32044e-09 1.00095 0.249642
1005.32 6.19432e-09 1.00094 0.248921
1000 0 1.00073 0.250421
1005.34 6.2151e-09 1.00094 0.248984
1005.81 6.51414e-09 1.00095 0.249729
1005.44 6.37343e-09 1.00095 0.249858
1005.36 6.23976e-09 1.00094 0.249201
1005.36 6.24017e-09 1.00094 0.248484
1005.86 6.49698e-09 1.00095 0.249963
1005.41 6.37572e-09 1.00095 0.250425
1000 0 1.00074 0.250282
1000 0 1.00074 0.250355
1005.74 6.59886e-09 1.00094 0.249937
1000 0 1.00073 0.250448
1005.76 6.46115e-09 1.00095 0.249781
1005.73 6.52038e-09 1.00095 0.249839
1005.45 6.37872e-09 1.00095 0.249925
1000 0 1.00073 0.2505
1005.87 6.46733e-09 1.00095 0.249933
1005.72 6.63078e-09 1.00092 0.250055
1005.74 6.57149e-09 1.00092 0.250014
1005.42 6.3258e-09 1.00095 0.249664
1005.79 6.45535e-09 1.00095 0.249825
1005.45 6.36456e-09 1.00095 0.249882
1005.45 6.38346e-09 1.00095 0.249928
1005.36 6.24924e-09 1.00094 0.249573
1005.83 6.45368e-09 1.00095 0.249893
1005.92 6.47503e-09 1.00095 0.249908
1005.42 6.38108e-09 1.00095 0.250337
1005.41 6.31308e-09 1.00094 0.249641
1005.44 6.35012e-09 1.00095 0.249715
1005.34 6.21065e-09 1.00094 0.248932
1005.44 6.38616e-09 1.00095 0.250123
1005.36 6.24087e-09 1.00094 0.249369
1005.37 6.2569e-09 1.00095 0.249605
1005.38 6.26199e-09 1.00094 0.249049
1000 0 1.00073 0.250597
1000 0 1.00073 0.250565
1000 0 1.00073 0.25053
1005.9 6.50017e-09 1.00095 0.249957
1000 0 1.00073 0.250473
1000 0 1.00074 0.250317
1000 0 1.00074 0.250424
1005.72 6.63718e-09 1.00094 0.250094
1005.68 6.62284e-09 1.00094 0.250144
1000 0 1.00074 0.250511
1000 0 1.00074 0.250508
1005.64 6.62057e-09 1.00094 0.250117
1005.67 6.63997e-09 1.00092 0.25011
1005.42 6.29871e-09 1.00094 0.24943
1005.7 6.6428e-09 1.00094 0.250019
1005.42 6.30165e-09 1.00094 0.249599
1005.66 6.60447e-09 1.00094 0.250129
1005.41 6.29843e-09 1.00094 0.249346
1005.41 6.30351e-09 1.00094 0.24953
1005.31 6.18182e-09 1.00094 0.248858
1005.41 6.30568e-09 1.00094 0.249638
1005.32 6.19026e-09 1.00094 0.248949
1000 0 1.00074 0.250486
1000 0 1.00082 0.250379
1005.67 6.61362e-09 1.00093 0.250179
1005.7 6.62157e-09 1.00089 0.25012
1000 0 1.00073 0.25027
1005.78 6.53343e-09 1.0009 0.250074
1005.72 6.60829e-09 1.00089 0.250096
1005.41 6.30981e-09 1.00095 0.249534
1005.43 6.33381e-09 1.00095 0.249708
1005.44 6.36244e-09 1.00095 0.249728
1005.35 6.2271e-09 1.00094 0.249076
1005.63 6.61731e-09 1.00094 0.250139
1005.66 6.62811e-09 1.00089 0.250148
1005.42 6.30164e-09 1.00094 0.249474
1005.42 6.30221e-09 1.00095 0.24957
1000 0 1.00073 0.250431
1005.8 6.51992e-09 1.00092 0.249862
1005.44 6.37092e-09 1.00095 0.24986
1005.42 6.31812e-09 1.00095 0.249616
1005.32 6.1946e-09 1.00094 0.248871
1005.36 6.2404e-09 1.00094 0.249184
1005.34 6.2156e-09 1.00094 0.248998
1005.36 6.24042e-09 1.00094 0.248489
1005.86 6.50163e-09 1.00095 0.249918
1005.41 6.37401e-09 1.00095 0.250384
1005.41 6.29991e-09 1.00094 0.249381
1005.41 6.30391e-09 1.00095 0.249558
1005.31 6.18436e-09 1.00094 0.24894
1005.32 6.1895e-09 1.00094 0.248859
1005.33 6.20379e-09 1.00094 0.248903
1005.33 6.20908e-09 1.00094 0.248385
1005.83 6.50067e-09 1.00095 0.249863
1005.35 6.22833e-09 1.00094 0.248379
1005.44 6.37796e-09 1.00095 0.250069
1005.37 6.25121e-09 1.00094 0.24945
1005.37 6.2526e-09 1.00094 0.248619
1005.35 6.2337e-09 1.00094 0.247874
1005.42 6.37672e-09 1.00095 0.250318
1005.4 6.37278e-09 1.00095 0.250525
1005.37 6.25738e-09 1.00095 0.250168
1005.74 6.62324e-09 1.00094 0.25
1000 0 1.00073 0.250494
1005.88 6.46381e-09 1.00095 0.249924
1005.73 6.56286e-09 1.00094 0.249883
1005.42 6.32823e-09 1.00095 0.249683
1005.8 6.45034e-09 1.00095 0.24988
1005.45 6.38564e-09 1.00095 0.249946
1005.45 6.36728e-09 1.00095 0.249908
1005.36 6.24895e-09 1.00094 0.249556
1005.83 6.45785e-09 1.00095 0.249921
1005.91 6.47814e-09 1.00095 0.249884
1005.42 6.37929e-09 1.00095 0.250373
1005.42 6.31079e-09 1.00094 0.249639
1005.44 6.34754e-09 1.00095 0.24975
1005.34 6.21137e-09 1.00094 0.248931
1005.44 6.38413e-09 1.00095 0.250126
1005.36 6.24123e-09 1.00094 0.249387
1005.37 6.25731e-09 1.00095 0.249607
1005.38 6.26196e-09 1.00094 0.248995
1005.96 6.48777e-09 1.00095 0.24986
1005.43 6.3829e-09 1.00095 0.250291
1005.41 6.37852e-09 1.00095 0.250413
1005.37 6.26062e-09 1.00095 0.250197
1005.33 6.19369e-09 1.00094 0.248932
1005.35 6.22412e-09 1.00094 0.24907
1005.35 6.23974e-09 1.00094 0.248309
1005.37 6.26104e-09 1.00095 0.24986
1005.37 6.25785e-09 1.00094 0.248696
1005.39 6.26611e-09 1.00095 0.248942
1005.38 6.26511e-09 1.00094 0.248494
1005.36 6.3682e-09 1.00095 0.250306
1006.03 6.51367e-09 1.00095 0.249791
1000 0 1.00073 0.250621
1000 0 1.00073 0.250592
1000 0 1.00073 0.25056
1005.94 6.51155e-09 1.00095 0.249889
1000 0 1.00073 0.250515
1005.89 6.50402e-09 1.00095 0.249954
1000 0 1.00073 0.250476
1005.73 6.63564e-09 1.00094 0.250054
1005.7 6.63195e-09 1.00094 0.250128
1005.41 6.30391e-09 1.00094 0.249593
1005.41 6.30107e-09 1.00094 0.249435
1005.67 6.61136e-09 1.00094 0.250137
1000 0 1.00074 0.250516
1005.61 6.61442e-09 1.00094 0.250129
1005.41 6.29604e-09 1.00094 0.249348
1005.42 6.30116e-09 1.00094 0.249531
1005.31 6.18217e-09 1.00094 0.248853
1005.41 6.3035e-09 1.00094 0.249629
1005.32 6.19047e-09 1.00094 0.248948
1005.41 6.2991e-09 1.00094 0.249337
1005.31 6.17445e-09 1.00094 0.248789
1005.32 6.18688e-09 1.00094 0.24892
1005.32 6.20615e-09 1.00094 0.248426
1005.32 6.19494e-09 1.00094 0.248953
1005.33 6.20793e-09 1.00094 0.248419
1005.66 6.60798e-09 1.00094 0.250108
1005.69 6.62021e-09 1.00089 0.250161
1005.41 6.30392e-09 1.00094 0.249461
1005.41 6.30434e-09 1.00095 0.249575
1000 0 1.00073 0.250449
1005.81 6.51414e-09 1.0009 0.249928
1005.44 6.37343e-09 1.00096 0.249855
1005.42 6.32044e-09 1.00095 0.249592
1005.32 6.19432e-09 1.00094 0.248821
1005.34 6.2151e-09 1.00094 0.249009
1005.36 6.23976e-09 1.00094 0.249165
1005.36 6.24017e-09 1.00094 0.248495
1005.86 6.49698e-09 1.00095 0.249887
1005.41 6.37572e-09 1.00095 0.25035
1005.42 6.29749e-09 1.00094 0.249377
1005.42 6.30186e-09 1.00095 0.24955
1005.31 6.18473e-09 1.00094 0.248916
1005.31 6.18974e-09 1.00094 0.248888
1005.82 6.50581e-09 1.00095 0.249822
1005.44 6.37568e-09 1.00095 0.25005
1005.37 6.25145e-09 1.00094 0.249487
1005.33 6.20422e-09 1.00094 0.248911
1005.33 6.20918e-09 1.00094 0.24834
1005.37 6.25299e-09 1.00094 0.248576
1005.35 6.22854e-09 1.00094 0.248378
1005.35 6.23403e-09 1.00094 0.247855
1005.42 6.37496e-09 1.00095 0.250316
1005.37 6.25767e-09 1.00095 0.250187
1005.4 6.37109e-09 1.00095 0.250472
1005.31 6.18e-09 1.00094 0.248864
1005.31 6.18457e-09 1.00094 0.248936
1005.32 6.19879e-09 1.00094 0.248542
1005.33 6.19959e-09 1.00094 0.248384
1005.34 6.21655e-09 1.00094 0.248268
1005.32 6.19706e-09 1.00094 0.247963
1005.43 6.37796e-09 1.00095 0.250208
1005.34 6.22131e-09 1.00094 0.247798
1005.37 6.25669e-09 1.00095 0.249881
1005.38 6.26299e-09 1.00094 0.248812
1005.36 6.25147e-09 1.00094 0.247892
1005.35 6.22417e-09 1.00094 0.247256
1005.39 6.3687e-09 1.00095 0.250566
1005.37 6.25664e-09 1.00095 0.250199
1005.37 6.25796e-09 1.00095 0.250286
1005.39 6.27714e-09 1.00095 0.249832
1005.41 6.31308e-09 1.00094 0.249639
1005.92 6.47503e-09 1.00095 0.249852
1005.83 6.45368e-09 1.00095 0.249962
1005.42 6.38108e-09 1.00095 0.250418
1005.44 6.35012e-09 1.00095 0.24978
1005.34 6.21065e-09 1.00094 0.248927
1005.44 6.38616e-09 1.00095 0.250127
1005.37 6.2569e-09 1.00095 0.249605
1005.36 6.24087e-09 1.00094 0.249409
1005.38 6.26199e-09 1.00094 0.248941
1005.95 6.49074e-09 1.00095 0.249835
1005.43 6.38102e-09 1.00095 0.250303
1005.41 6.37689e-09 1.00095 0.250451
1005.37 6.2606e-09 1.00095 0.25019
1005.33 6.19398e-09 1.00094 0.248927
1005.35 6.22478e-09 1.00094 0.249074
1005.35 6.24e-09 1.00094 0.248304
1005.37 6.26123e-09 1.00095 0.249859
1005.37 6.25801e-09 1.00094 0.248731
1005.39 6.26658e-09 1.00095 0.248927
1005.38 6.26521e-09 1.00094 0.248542
1005.99 6.4995e-09 1.00095 0.249823
1005.39 6.37509e-09 1.00095 0.250457
1005.37 6.26025e-09 1.00095 0.250116
1005.37 6.26084e-09 1.00095 0.250354
1005.4 6.27861e-09 1.00095 0.249742
1005.34 6.27296e-09 1.00094 0.248377
1005.36 6.25303e-09 1.00094 0.248349
1005.34 6.19804e-09 1.00094 0.247667
1005.39 6.26966e-09 1.00095 0.249176
1005.37 6.26028e-09 1.00094 0.247962
1005.39 6.29715e-09 1.00094 0.248297
1005.37 6.37059e-09 1.00095 0.250361
1005.38 6.25842e-09 1.00095 0.25072
1005.35 6.36475e-09 1.00095 0.250269
1005.36 6.36703e-09 1.00095 0.250313
1006.06 6.52774e-09 1.00091 0.249987
1006.03 6.51642e-09 1.00093 0.249927
1000 0 1.00083 0.250208
1000 0 1.00073 0.250617
1000 0 1.00073 0.250588
1005.98 6.52778e-09 1.00095 0.249842
1000 0 1.00073 0.250549
1005.94 6.51487e-09 1.00095 0.249918
1000 0 1.00073 0.250519
1005.9 6.50017e-09 1.00095 0.249946
1000 0 1.00073 0.25048
1005.41 6.30568e-09 1.00094 0.24962
1005.41 6.30351e-09 1.00094 0.249531
1005.32 6.19026e-09 1.00094 0.248947
1005.31 6.18182e-09 1.00094 0.248848
1005.41 6.29843e-09 1.00094 0.24935
1005.66 6.60447e-09 1.00094 0.250115
1005.42 6.29651e-09 1.00094 0.249335
1005.31 6.1748e-09 1.00094 0.248787
1005.31 6.18715e-09 1.00094 0.248917
1005.32 6.20626e-09 1.00094 0.248394
1005.32 6.19525e-09 1.00094 0.248947
1005.33 6.20782e-09 1.00094 0.248418
1005.31 6.16845e-09 1.00094 0.248783
1005.32 6.21781e-09 1.00093 0.248393
1005.33 6.2021e-09 1.00094 0.248414
1005.32 6.18332e-09 1.00093 0.248054
1005.33 6.21015e-09 1.00094 0.248418
1005.32 6.20588e-09 1.00094 0.247898
1005.41 6.29991e-09 1.00094 0.249377
1005.41 6.30391e-09 1.00095 0.249539
1005.31 6.18436e-09 1.00094 0.248893
1005.32 6.1895e-09 1.00094 0.248919
1005.83 6.50067e-09 1.00095 0.249785
1005.44 6.37796e-09 1.00095 0.250038
1005.37 6.25121e-09 1.00094 0.249528
1005.33 6.20379e-09 1.00094 0.248921
1005.33 6.20908e-09 1.00094 0.248294
1005.35 6.22833e-09 1.00094 0.248379
1005.37 6.2526e-09 1.00094 0.248533
1005.35 6.2337e-09 1.00094 0.247832
1005.42 6.37672e-09 1.00095 0.250307
1005.37 6.25738e-09 1.00095 0.250202
1005.4 6.37278e-09 1.00095 0.250428
1005.31 6.18035e-09 1.00094 0.248846
1005.31 6.18476e-09 1.00094 0.248925
1005.32 6.19881e-09 1.00093 0.248517
1005.33 6.19939e-09 1.00094 0.248396
1005.43 6.37598e-09 1.00095 0.25022
1005.37 6.25652e-09 1.00095 0.249883
1005.38 6.26316e-09 1.00094 0.248844
1005.34 6.21657e-09 1.00094 0.248308
1005.32 6.19681e-09 1.00094 0.247916
1005.37 6.25199e-09 1.00094 0.247849
1005.34 6.22131e-09 1.00094 0.247812
1005.35 6.2241e-09 1.00094 0.247217
1005.37 6.25679e-09 1.00095 0.2502
1005.39 6.2773e-09 1.00095 0.249834
1005.39 6.36716e-09 1.00095 0.250532
1005.37 6.25785e-09 1.00095 0.25031
1005.32 6.20758e-09 1.00093 0.248492
1005.33 6.21341e-09 1.00094 0.24848
1005.32 6.21448e-09 1.00093 0.248213
1005.32 6.20772e-09 1.00093 0.247997
1005.33 6.21723e-09 1.00094 0.247762
1005.32 6.20306e-09 1.00093 0.247557
1005.37 6.25691e-09 1.00095 0.250128
1005.34 6.21801e-09 1.00094 0.247129
1005.39 6.2681e-09 1.00095 0.249313
1005.38 6.28261e-09 1.00094 0.248115
1005.36 6.22311e-09 1.00094 0.247177
1005.35 6.22839e-09 1.00094 0.246647
1005.37 6.36533e-09 1.00095 0.250534
1005.38 6.25635e-09 1.00095 0.250495
1005.39 6.27529e-09 1.00095 0.249923
1005.4 6.2783e-09 1.00095 0.249816
1005.39 6.27781e-09 1.00095 0.249689
1005.96 6.48777e-09 1.00095 0.249811
1005.33 6.19369e-09 1.00094 0.24892
1005.41 6.37852e-09 1.00095 0.250499
1005.43 6.3829e-09 1.00095 0.250308
1005.37 6.26062e-09 1.00095 0.250184
1005.35 6.22412e-09 1.00094 0.249076
1005.35 6.23974e-09 1.00094 0.248298
1005.37 6.26104e-09 1.00095 0.249856
1005.39 6.26611e-09 1.00095 0.248905
1005.37 6.25785e-09 1.00094 0.248765
1005.38 6.26511e-09 1.00094 0.24859
1005.99 6.50238e-09 1.00095 0.249804
1005.39 6.37362e-09 1.00095 0.250479
1005.37 6.26044e-09 1.00095 0.250116
1005.37 6.26064e-09 1.00095 0.250361
1005.4 6.27826e-09 1.00095 0.249728
1005.34 6.27397e-09 1.00094 0.248375
1005.36 6.25307e-09 1.00094 0.248339
1005.34 6.19882e-09 1.00094 0.247632
1005.39 6.2697e-09 1.00095 0.249184
1005.37 6.25995e-09 1.00094 0.248039
1005.39 6.29746e-09 1.00094 0.248311
1005.38 6.37315e-09 1.00095 0.250418
1005.38 6.26004e-09 1.00095 0.250535
1005.39 6.27403e-09 1.00095 0.24959
1005.4 6.276e-09 1.00095 0.249855
1005.39 6.28585e-09 1.00095 0.249402
1005.31 5.94858e-09 1.00094 0.247938
1005.36 6.26642e-09 1.00094 0.247453
1005.34 6.1915e-09 1.00094 0.246655
1005.39 6.31555e-09 1.00095 0.248449
1005.37 6.21168e-09 1.00094 0.247552
1005.37 6.36942e-09 1.00095 0.250368
1005.38 6.25872e-09 1.00095 0.250676
1005.38 6.25841e-09 1.00095 0.25072
1005.4 6.28124e-09 1.00095 0.250451
1005.38 6.25789e-09 1.00095 0.250716
1005.34 6.36001e-09 1.00095 0.250254
1005.35 6.36371e-09 1.00095 0.250274
1006.09 6.54594e-09 1.00091 0.249969
1005.36 6.3682e-09 1.00095 0.25032
1006.06 6.53033e-09 1.00091 0.25003
1000 0 1.00083 0.250219
1006.03 6.51367e-09 1.00091 0.25002
1000 0 1.00078 0.250345
1000 0 1.00073 0.250614
1006.02 6.54481e-09 1.00095 0.249808
1005.98 6.53096e-09 1.00095 0.249866
1000 0 1.00073 0.250578
1000 0 1.00073 0.250553
1005.94 6.51155e-09 1.00095 0.249937
1000 0 1.00073 0.250521
1005.32 6.19494e-09 1.00094 0.248941
1005.32 6.18688e-09 1.00094 0.248915
1005.33 6.20793e-09 1.00094 0.248417
1005.32 6.20615e-09 1.00093 0.248362
1005.31 6.17445e-09 1.00094 0.248784
1005.41 6.2991e-09 1.00094 0.249331
1005.31 6.16895e-09 1.00094 0.248782
1005.32 6.21804e-09 1.00093 0.248403
1005.33 6.20207e-09 1.00094 0.248415
1005.32 6.18363e-09 1.00093 0.248004
1005.33 6.21022e-09 1.00094 0.248414
1005.32 6.20605e-09 1.00093 0.247867
1005.32 6.25523e-09 1.00093 0.248446
1005.31 6.1569e-09 1.00093 0.248138
1005.32 6.22001e-09 1.00093 0.247909
1005.32 6.15089e-09 1.00093 0.247751
1005.33 6.23988e-09 1.00094 0.247908
1005.32 6.1211e-09 1.00093 0.247475
1005.31 6.18e-09 1.00094 0.248828
1005.31 6.18457e-09 1.00094 0.248914
1005.32 6.19879e-09 1.00093 0.248491
1005.33 6.19959e-09 1.00094 0.248407
1005.43 6.37796e-09 1.00095 0.250228
1005.37 6.25669e-09 1.00095 0.249883
1005.38 6.26299e-09 1.00094 0.248873
1005.34 6.21655e-09 1.00094 0.248348
1005.32 6.19706e-09 1.00093 0.247868
1005.34 6.22131e-09 1.00094 0.247826
1005.36 6.25147e-09 1.00094 0.24781
1005.35 6.22417e-09 1.00094 0.24717
1005.37 6.25664e-09 1.00095 0.250205
1005.39 6.27714e-09 1.00095 0.249839
1005.39 6.3687e-09 1.00095 0.250499
1005.37 6.25796e-09 1.00095 0.250335
1005.32 6.208e-09 1.00093 0.248496
1005.33 6.2139e-09 1.00094 0.248484
1005.32 6.21542e-09 1.00093 0.248217
1005.32 6.20876e-09 1.00093 0.248009
1005.37 6.2568e-09 1.00095 0.250135
1005.39 6.26795e-09 1.00095 0.249362
1005.38 6.28326e-09 1.00094 0.248087
1005.33 6.21806e-09 1.00094 0.247805
1005.32 6.20452e-09 1.00093 0.247558
1005.36 6.22388e-09 1.00094 0.247171
1005.34 6.21924e-09 1.00094 0.247131
1005.35 6.22897e-09 1.00094 0.246672
1005.39 6.27504e-09 1.00095 0.249929
1005.39 6.27768e-09 1.00095 0.249688
1005.4 6.27816e-09 1.00095 0.249806
1005.37 6.36398e-09 1.00095 0.250516
1005.38 6.25626e-09 1.00095 0.250512
1005.32 6.13452e-09 1.00093 0.248134
1005.31 6.13634e-09 1.00093 0.248016
1005.31 6.14565e-09 1.00093 0.247544
1005.31 6.14981e-09 1.00094 0.247211
1005.39 6.27189e-09 1.00095 0.2498
1005.32 6.14505e-09 1.00094 0.246019
1005.39 6.30701e-09 1.00094 0.248707
1005.37 6.20645e-09 1.00094 0.247295
1005.36 6.23179e-09 1.00094 0.246468
1005.36 6.3608e-09 1.00095 0.250475
1005.38 6.25203e-09 1.00095 0.25063
1005.4 6.28341e-09 1.00095 0.249992
1005.39 6.28214e-09 1.00095 0.249755
1005.39 6.28528e-09 1.00095 0.249474
1005.39 6.27969e-09 1.00095 0.249646
1005.99 6.4995e-09 1.00095 0.249784
1005.39 6.37509e-09 1.00095 0.250497
1005.34 6.27296e-09 1.00094 0.248373
1005.37 6.26084e-09 1.00095 0.250365
1005.37 6.26025e-09 1.00095 0.25012
1005.4 6.27861e-09 1.00095 0.249715
1005.36 6.25303e-09 1.00094 0.248329
1005.34 6.19804e-09 1.00094 0.247601
1005.39 6.26966e-09 1.00095 0.249196
1005.39 6.29715e-09 1.00094 0.248324
1005.37 6.26028e-09 1.00094 0.24811
1005.38 6.37182e-09 1.00095 0.250428
1005.38 6.25986e-09 1.00095 0.250556
1005.39 6.2738e-09 1.00095 0.249598
1005.4 6.27571e-09 1.00095 0.249858
1005.39 6.28569e-09 1.00095 0.249378
1005.31 5.94594e-09 1.00094 0.247906
1005.36 6.26795e-09 1.00094 0.247471
1005.34 6.19013e-09 1.00094 0.246599