# vtk DataFile Version 2.0
Wound Healing Simulation
ASCII
DATASET UNSTRUCTURED_GRID
POINTS 3012 float
69.9759 18.75 4
67.2507 60.3285 4
69.976 18.75 2
73.0099 25.446 4
71.1327 20.9142 4
68.6801 16.6661 4
67.8265 19.9149 3.99281
67.2507 60.3286 2
71.1327 54.0858 4
68.6801 58.3339 4
65.6939 62.2254 4
65.3131 59.0103 3.99362
74.6784 42.3946 4
73.7221 47.2057 4
69.9759 18.75 0
73.0099 25.446 2
68.6801 16.6661 2
71.1327 20.9142 2
67.8265 19.9144 2
74.6792 32.6053 4
73.7222 27.7943 4
72.1454 23.1494 4
70.6164 26.2118 3.99129
68.8872 21.9472 3.99238
67.2507 14.6715 4
66.6379 17.9611 3.99324
65.8044 21.0062 3.98838
67.2507 60.3285 0
71.1327 54.0858 2
68.6801 58.3339 2
65.694 62.2255 2
65.3131 59.0107 2
72.1454 51.8506 4
69.9759 56.25 4
68.8379 53.1239 3.99216
64.0165 64.0165 4
66.6116 57.1439 3.99331
63.8866 60.7735 3.99397
63.5046 57.792 3.98942
60.3285 67.2507 4
74.6792 42.3947 2
73.7222 47.2057 2
74.9194 39.9526 4
74.2788 44.8158 4
72.1714 42.0907 3.98997
73.0099 49.554 4
71.252 46.6066 3.99079
73.0099 25.446 0
71.1327 20.9142 0
68.6801 16.6661 0
67.8265 19.9149 0.00719468
74.6792 32.6053 2
73.7222 27.7943 2
67.2508 14.6715 2
72.1455 23.1494 2
70.6165 26.2115 2
66.6378 17.9607 2
68.8871 21.9467 2
65.8044 21.0058 2
74.9197 35.0474 4
74.2794 30.1841 4
72.1878 32.9382 3.98992
71.2807 28.4232 3.99069
69.8175 24.0495 3.9919
68.3568 26.9393 3.98711
66.771 22.9165 3.98794
65.694 12.7746 4
65.3244 16.0939 3.99361
64.7195 19.174 3.98891
63.9012 22.0095 3.98664
71.1327 54.0858 0
65.6939 62.2254 0
68.6801 58.3339 0
65.3131 59.0103 0.00638046
72.1455 51.8506 2
69.9759 56.25 2
68.8379 53.1243 2
64.0165 64.0165 2
66.6115 57.1443 2
63.8865 60.7739 2
63.5046 57.7924 2
62.2254 65.694 4
58.8937 65.4188 3.99423
69.7709 50.9992 3.9916
67.7849 55.1781 3.99283
66.6582 52.2258 3.98761
62.3366 62.4336 3.99416
64.6666 56.0514 3.98901
62.2054 59.4239 3.98995
61.832 56.7083 3.98731
58.3339 68.6801 4
60.3285 67.2508 2
73.7221 47.2057 0
74.6784 42.3946 0
74.9197 39.9526 2
74.2794 44.8159 2
72.1714 42.0909 2
73.0099 49.554 2
71.252 46.6069 2
75 37.5 4
72.4088 39.8048 3.9898
71.7855 44.3599 3.99041
69.8154 41.7954 3.98661
70.5775 48.8231 3.99118
68.9231 46.0255 3.98707
74.6792 32.6053 0
73.7222 27.7943 0
67.2507 14.6715 0
72.1454 23.1494 0
70.6164 26.2118 0.00870607
68.8872 21.9472 0.00761878
66.6379 17.9611 0.00676177
65.8044 21.0062 0.0116246
74.9197 35.0474 2
74.2794 30.1841 2
72.1878 32.938 2
71.2808 28.423 2
65.694 12.7745 2
65.3243 16.0935 2
69.8175 24.0491 2
68.3569 26.9391 2
64.7195 19.1735 2
66.7711 22.9161 2
63.9013 22.0092 2
72.4166 35.2212 3.98982
71.8067 30.6694 3.99028
69.8507 33.2628 3.9865
68.9764 29.0282 3.9868
67.6206 24.8976 3.98754
66.2127 27.6179 3.98563
64.0165 10.9835 4
64.7726 23.807 3.9864
63.8905 14.3194 3.99384
63.517 17.4254 3.98949
62.9187 20.2925 3.98691
62.1138 22.9113 3.98588
60.684 11.092 3.99405
57.6122 11.434 3.99026
72.1454 51.8506 0
69.9759 56.25 0
68.8379 53.1239 0.00783591
64.0165 64.0165 0
63.8866 60.7735 0.00603438
66.6116 57.1439 0.00669208
63.5046 57.792 0.0105786
62.2255 65.694 2
58.8936 65.4191 2
69.7709 50.9996 2
67.7849 55.1786 2
66.6582 52.2261 2
62.3366 62.434 2
64.6666 56.0518 2
62.2054 59.4243 2
61.832 56.7087 2
60.6687 63.9823 3.9942
57.0242 66.7389 3.99428
57.5576 63.7029 3.99046
67.5171 50.1913 3.98725
65.7094 54.1918 3.98832
64.5541 51.4084 3.9858
60.7743 60.9549 3.99036
62.8316 55.0946 3.98721
60.6645 58.1855 3.98746
60.3406 55.8183 3.98641
56.25 69.9759 4
58.3339 68.6801 2
60.3285 67.2507 0
58.9209 9.65084 3.9941
62.2254 9.30607 4
73.0099 49.554 0
74.2788 44.8158 0
71.252 46.6066 0.00920649
72.1714 42.0907 0.0100307
74.9194 39.9526 0
75 37.5 2
72.4088 39.8049 2
71.7856 44.3602 2
69.8155 41.7955 2
70.5775 48.8234 2
68.9232 46.0256 2
72.4921 37.5118 3.98956
70.0527 39.6602 3.98669
69.4415 43.9159 3.98685
67.6179 41.5051 3.9854
68.2763 48.1198 3.98716
66.7296 45.4542 3.98553
74.9197 35.0474 0
74.2794 30.1841 0
72.1878 32.9382 0.0100791
71.2807 28.4232 0.00931204
65.694 12.7746 0
65.3244 16.0939 0.00638975
69.8175 24.0495 0.00809665
68.3568 26.9393 0.0128853
66.771 22.9165 0.0120567
64.7195 19.174 0.0110864
63.9012 22.0095 0.0133618
72.4166 35.2212 2
71.8067 30.6692 2
69.8508 33.2628 2
68.9765 29.0281 2
64.0165 10.9835 2
63.8905 14.319 2
63.517 17.425 2
67.6207 24.8972 2
66.2129 27.6177 2
62.9188 20.2922 2
64.7727 23.8067 2
62.1139 22.9111 2
60.6839 11.0916 2
57.6122 11.4336 2
70.0691 35.3889 3.98661
69.4776 31.1417 3.98669
67.6749 33.5839 3.98496
66.791 29.6092 3.9852
65.5414 25.6793 3.98608
64.1729 28.2343 3.98502
62.3419 12.6485 3.99398
62.8805 24.6082 3.98577
62.2007 15.7647 3.98991
61.822 18.6567 3.9873
61.235 21.3079 3.98587
60.4532 23.6905 3.98565
59.2465 12.7634 3.99022
55.8739 10.2222 3.99034
56.4062 13.0943 3.98777
69.7709 50.9992 0.00840169
62.2254 65.694 0
58.8937 65.4188 0.00576724
67.7849 55.1781 0.0071698
66.6582 52.2258 0.0123933
62.3366 62.4336 0.00583988
62.2054 59.4239 0.0100477
64.6666 56.0514 0.0109862
61.832 56.7083 0.0126909
60.6686 63.9827 2
57.0241 66.7392 2
57.5575 63.7033 2
67.5172 50.1916 2
65.7095 54.1922 2
64.5542 51.4086 2
60.7743 60.9553 2
62.8317 55.0949 2
60.6646 58.1858 2
60.3407 55.8186 2
55.0697 67.9352 3.99432
59.2197 62.3803 3.99043
55.8036 64.9186 3.99052
56.328 62.1058 3.98798
65.3498 49.4287 3.98559
63.7203 53.3177 3.98647
62.466 50.6809 3.98495
59.3369 59.5798 3.98784
61.0932 54.3413 3.98637
59.2983 57.0439 3.98612
59.2573 55.2188 3.98636
48.1022 68.583 3.99075
50.9477 69.934 3.99437
54.0858 71.1327 4
56.25 69.976 2
58.3339 68.6801 0
57.0579 8.33129 3.99415
60.3285 7.74928 4
58.9208 9.65048 2
62.2255 9.30602 2
70.5775 48.8231 0.00881582
71.7855 44.3599 0.00959152
68.9231 46.0255 0.0129319
69.8154 41.7954 0.0133856
72.4088 39.8048 0.0101989
75 37.5 0
72.4922 37.5118 2
70.0527 39.6602 2
69.4416 43.9161 2
67.618 41.5051 2
68.2763 48.12 2
66.7297 45.4543 2
70.1406 37.5213 3.98667
67.8553 39.5162 3.98569
67.2438 43.4809 3.98533
65.5858 41.2193 3.98498
66.0878 47.4355 3.98564
64.6811 44.8666 3.98507
72.4166 35.2212 0.0101774
71.8067 30.6694 0.00972379
69.8507 33.2628 0.0134998
68.9764 29.0282 0.0131961
64.0165 10.9835 0
63.8905 14.3194 0.00615561
63.517 17.4254 0.0105114
67.6206 24.8976 0.0124639
66.2127 27.6179 0.0143678
64.7726 23.807 0.0135974
62.9187 20.2925 0.0130922
62.1138 22.9113 0.0141214
60.684 11.092 0.00594934
57.6122 11.434 0.00973785
70.0691 35.3889 2
69.4777 31.1416 2
67.675 33.5838 2
66.7911 29.6091 2
62.3419 12.6481 2
62.2007 15.7643 2
61.8221 18.6564 2
65.5416 25.6791 2
64.1731 28.2342 2
61.2351 21.3077 2
62.8807 24.6081 2
60.4533 23.6903 2
59.2464 12.763 2
56.4062 13.094 2
55.8739 10.2218 2
67.8907 35.5439 3.98521
67.2845 31.612 3.985
65.7258 33.919 3.98449
64.6905 30.1751 3.98435
63.5636 26.3888 3.98551
62.2922 28.7528 3.98507
60.7759 14.2058 3.99013
61.0761 25.3039 3.98554
60.6174 17.1017 3.98761
60.2349 19.783 3.98621
59.6841 22.2198 3.9853
59.0112 24.2793 3.9859
54.0369 9.12669 3.99043
57.9117 14.3107 3.98781
54.7872 11.9959 3.9878
55.3142 14.6233 3.98654
67.5171 50.1913 0.0127473
57.0242 66.7389 0.00572301
60.6687 63.9823 0.00580107
57.5576 63.7029 0.00954225
65.7094 54.1918 0.0116798
64.5541 51.4084 0.0141977
60.7743 60.9549 0.0096387
60.6645 58.1855 0.0125377
62.8316 55.0946 0.0127877
60.3406 55.8183 0.0135932
55.0697 67.9355 2
59.2197 62.3808 2
55.8036 64.919 2
56.328 62.1062 2
65.3499 49.4289 2
63.7204 53.3179 2
62.4661 50.6811 2
59.3369 59.5802 2
61.0933 54.3415 2
59.2984 57.0442 2
59.2574 55.219 2
53.0417 69.0026 3.99435
53.9657 66.0196 3.99059
57.8828 60.8894 3.98796
54.6839 63.2194 3.98807
55.2136 60.6352 3.98653
63.221 48.687 3.98504
61.7622 52.6062 3.98545
60.3058 50.0534 3.98442
58.0237 58.2883 3.98643
59.3463 53.9837 3.98586
58.1389 55.8487 3.98498
50.1085 67.8615 3.99069
47.4628 66.5876 3.98835
46.0561 69.162 3.99078
48.1021 68.5834 2
48.8021 70.725 3.9944
50.9477 69.9343 2
51.8506 72.1454 4
54.0858 71.1327 2
56.25 69.9759 0
55.1022 7.13632 3.99418
58.3339 6.31992 4
57.0579 8.33095 2
60.3286 7.74926 2
58.9209 9.65084 0.00589815
62.2254 9.30607 0
68.2763 48.1198 0.0128358
69.4415 43.9159 0.0131533
66.7296 45.4542 0.014467
67.6179 41.5051 0.0145957
70.0527 39.6602 0.0133081
72.4921 37.5118 0.0104446
70.1406 37.5214 2
67.8554 39.5162 2
67.2439 43.481 2
65.5859 41.2193 2
66.0879 47.4356 2
64.6812 44.8666 2
67.9514 37.522 3.9857
65.8182 39.3752 3.98547
65.2053 43.0392 3.98471
63.7945 40.9406 3.98492
63.9938 46.739 3.98524
62.845 44.2378 3.98509
70.0691 35.3889 0.0133923
69.4776 31.1417 0.013313
67.6749 33.5839 0.0150412
66.791 29.6092 0.0147965
62.3419 12.6485 0.00602168
62.2007 15.7647 0.0100929
61.822 18.6567 0.0126976
65.5414 25.6793 0.0139156
64.1729 28.2343 0.0149752
62.8805 24.6082 0.0142261
61.235 21.3079 0.0141259
60.4532 23.6905 0.0143546
59.2465 12.7634 0.00978303
56.4062 13.0943 0.0122271
55.8739 10.2222 0.00965744
67.8908 35.5439 2
67.2846 31.612 2
65.7259 33.9189 2
64.6906 30.1751 2
60.7759 14.2053 2
60.6174 17.1014 2
60.235 19.7828 2
63.5638 26.3887 2
62.2923 28.7527 2
59.6842 22.2197 2
61.0762 25.3037 2
59.0114 24.2792 2
57.9118 14.3104 2
55.3143 14.623 2
54.0368 9.12628 2
54.7872 11.9956 2
65.9055 35.6626 3.98447
65.2143 32.1417 3.98411
64.319 34.2409 3.98391
62.6316 30.6156 3.98441
61.685 27.0424 3.98534
60.8917 29.113 3.98548
59.3129 15.6455 3.98776
59.3687 25.7583 3.98603
59.1306 18.3249 3.98662
58.7566 20.8164 3.9854
58.3129 23.0498 3.98503
58.0044 24.6215 3.98655
52.1115 8.1461 3.99045
53.058 11.0039 3.9879
56.6787 15.7173 3.98674
53.8107 13.6611 3.98635
54.3783 15.9728 3.98602
55.0697 67.9352 0.00568418
65.3498 49.4287 0.0144051
55.8036 64.9186 0.00947591
59.2197 62.3803 0.00957475
56.328 62.1058 0.0120187
63.7203 53.3177 0.0135287
62.466 50.6809 0.0150521
59.3369 59.5798 0.0121551
59.2983 57.0439 0.0138774
61.0932 54.3413 0.0136348
59.2573 55.2188 0.0136441
53.0417 69.0029 2
53.9657 66.02 2
57.8828 60.8898 2
54.6839 63.2198 2
55.2136 60.6355 2
63.2211 48.6871 2
61.7623 52.6064 2
60.3059 50.0535 2
58.0238 58.2886 2
59.3465 53.9839 2
58.1391 55.8489 2
52.0693 67.0052 3.99064
52.9528 64.228 3.98814
[...]
POINT_DATA 3012
SCALARS rho_c_phif_kappa float 4
LOOKUP_TABLE default
1000 0 1.00007 0.232096
1000 0 1.00007 0.232176
1000 0 1.00007 0.23209
1000 0 1.00007 0.232078
1000 0 1.00007 0.232086
1000 0 1.00007 0.232109
1000.69 8.0921e-10 1.00007 0.232122
1000 0 1.00007 0.232177
1000 0 1.00007 0.232141
1000 0 1.00007 0.232165
1000 0 1.00007 0.23213
1000.69 8.08538e-10 1.00007 0.232107
1000 0 1.00007 0.23212
1000 0 1.00007 0.232047
1000 0 1.00007 0.232084
1000 0 1.00007 0.232062
1000 0 1.00007 0.232104
1000 0 1.00007 0.232077
1000.69 8.09121e-10 1.00007 0.232125
1000 0 1.00007 0.23217
1000 0 1.00007 0.232086
1000 0 1.00007 0.232079
1000.69 8.10434e-10 1.00007 0.232116
1000.69 8.09631e-10 1.00007 0.23212
1000 0 1.00007 0.232122
1000.69 8.08788e-10 1.00007 0.232124
1000.51 6.03949e-10 1.00007 0.232197
1000 0 1.00007 0.232178
1000 0 1.00007 0.232104
1000 0 1.00007 0.232133
1000 0 1.00007 0.232187
1000.69 8.0839e-10 1.00007 0.232104
1000 0 1.00007 0.232056
1000 0 1.00007 0.232087
1000.69 8.08376e-10 1.00007 0.232133
1000 0 1.00007 0.232195
1000.69 8.08742e-10 1.00007 0.232133
1000.69 8.07943e-10 1.00007 0.232111
1000.51 6.0414e-10 1.00007 0.232189
1000 0 1.00007 0.232209
1000 0 1.00007 0.232176
1000 0 1.00007 0.232095
1000 0 1.00007 0.23222
1000 0 1.00007 0.232065
1000.69 8.1318e-10 1.00007 0.232109
1000 0 1.00007 0.232128
1000.69 8.11154e-10 1.00007 0.232128
1000 0 1.00007 0.232048
1000 0 1.00007 0.23207
1000 0 1.00007 0.232099
1000.69 8.0921e-10 1.00007 0.232127
1000 0 1.00007 0.23215
1000 0 1.00007 0.232069
1000 0 1.00007 0.232117
1000 0 1.00007 0.232066
1000.69 8.10489e-10 1.00007 0.232122
1000.69 8.08667e-10 1.00007 0.232126
1000.69 8.0958e-10 1.00007 0.232124
1000.51 6.03964e-10 1.00007 0.2322
1000 0 1.00007 0.232186
1000 0 1.00007 0.232104
1000.69 8.12999e-10 1.00007 0.23213
1000.69 8.10924e-10 1.00007 0.232116
1000.69 8.1001e-10 1.00007 0.232117
1000.51 6.03838e-10 1.00007 0.232198
1000.51 6.03834e-10 1.00007 0.2322
1000 0 1.00007 0.232133
1000.69 8.0833e-10 1.00007 0.232125
1000.51 6.04132e-10 1.00007 0.232192
1000.56 6.53362e-10 1.00007 0.232239
1000 0 1.00007 0.232143
1000 0 1.00007 0.232188
1000 0 1.00007 0.232167
1000.69 8.08538e-10 1.00007 0.232101
1000 0 1.00007 0.232135
1000 0 1.00007 0.232154
1000.69 8.08332e-10 1.00007 0.232099
1000 0 1.00007 0.232167
1000.69 8.08617e-10 1.00007 0.232103
1000.69 8.07776e-10 1.00007 0.23212
1000.51 6.04137e-10 1.00007 0.23219
1000 0 1.00007 0.232203
1000.69 8.06435e-10 1.00007 0.232114
1000.69 8.08396e-10 1.00007 0.232105
1000.69 8.08422e-10 1.00007 0.232111
1000.51 6.03968e-10 1.00007 0.232211
1000.69 8.07169e-10 1.00007 0.232133
1000.51 6.04175e-10 1.00007 0.232197
1000.51 6.04524e-10 1.00007 0.232181
1000.56 6.53861e-10 1.00007 0.232234
1000 0 1.00007 0.232215
1000 0 1.00007 0.23221
1000 0 1.00007 0.23213
1000 0 1.00007 0.23216
1000 0 1.00007 0.232201
1000 0 1.00007 0.232112
1000.69 8.13368e-10 1.00007 0.232116
1000 0 1.00007 0.232087
1000.69 8.11264e-10 1.00007 0.232105
1000 0 1.00007 0.232212
1000.69 8.14114e-10 1.00007 0.232099
1000.69 8.12489e-10 1.00007 0.23213
1000.51 6.03808e-10 1.00007 0.232144
1000.69 8.10063e-10 1.00007 0.232117
1000.51 6.03791e-10 1.00007 0.232186
1000 0 1.00007 0.23212
1000 0 1.00007 0.23205
1000 0 1.00007 0.232113
1000 0 1.00007 0.232057
1000.69 8.10434e-10 1.00007 0.232127
1000.69 8.09631e-10 1.00007 0.232127
1000.69 8.08788e-10 1.00007 0.232127
1000.51 6.03949e-10 1.00007 0.232202
1000 0 1.00007 0.2322
1000 0 1.00007 0.232087
1000.69 8.13181e-10 1.00007 0.232118
1000.69 8.11032e-10 1.00007 0.232122
1000 0 1.00007 0.232155
1000.69 8.08185e-10 1.00007 0.232127
1000.69 8.10011e-10 1.00007 0.232123
1000.51 6.03873e-10 1.00007 0.232199
1000.51 6.04143e-10 1.00007 0.232194
1000.51 6.03856e-10 1.00007 0.232202
1000.56 6.53414e-10 1.00007 0.232239
1000.69 8.14058e-10 1.00007 0.232114
1000.69 8.11982e-10 1.00007 0.232119
1000.51 6.03456e-10 1.00007 0.23216
1000.51 6.03914e-10 1.00007 0.232191
1000.51 6.03978e-10 1.00007 0.232201
1000.56 6.5336e-10 1.00007 0.232221
1000 0 1.00007 0.232193
1000.56 6.53442e-10 1.00007 0.232236
1000.69 8.07908e-10 1.00007 0.232101
1000.51 6.04288e-10 1.00007 0.232187
1000.56 6.53537e-10 1.00007 0.232238
1000.55 6.41015e-10 1.00007 0.232233
1000.69 8.07573e-10 1.00007 0.232109
1000.51 6.04122e-10 1.00007 0.232172
1000 0 1.00007 0.232133
1000 0 1.00007 0.232155
1000.69 8.08376e-10 1.00007 0.232094
1000 0 1.00007 0.232196
1000.69 8.07943e-10 1.00007 0.232104
1000.69 8.08742e-10 1.00007 0.232098
1000.51 6.0414e-10 1.00007 0.232192
1000 0 1.00007 0.232203
1000.69 8.06242e-10 1.00007 0.232114
1000.69 8.0844e-10 1.00007 0.232113
1000.69 8.08335e-10 1.00007 0.232119
1000.51 6.04042e-10 1.00007 0.232213
1000.69 8.06985e-10 1.00007 0.232108
1000.51 6.04182e-10 1.00007 0.232199
1000.51 6.0452e-10 1.00007 0.232181
1000.56 6.53918e-10 1.00007 0.232234
1000.69 8.0669e-10 1.00007 0.23211
1000.69 8.06312e-10 1.00007 0.232117
1000.51 6.04836e-10 1.00007 0.232167
1000.51 6.06247e-10 1.00007 0.232212
1000.51 6.04503e-10 1.00007 0.232204
1000.56 6.54758e-10 1.00007 0.232232
1000.51 6.0482e-10 1.00007 0.232174
1000.56 6.53632e-10 1.00007 0.232232
1000.56 6.54063e-10 1.00007 0.232229
1000.55 6.41616e-10 1.00007 0.232212
1000 0 1.00007 0.232221
1000 0 1.00007 0.232216
1000 0 1.00007 0.23221
1000.69 8.07324e-10 1.00007 0.232113
1000 0 1.00007 0.232201
1000 0 1.00007 0.232128
1000 0 1.00007 0.23214
1000.69 8.11154e-10 1.00007 0.23209
1000.69 8.1318e-10 1.00007 0.232104
1000 0 1.00007 0.232187
1000 0 1.00007 0.232222
1000.69 8.1429e-10 1.00007 0.232104
1000.69 8.12637e-10 1.00007 0.232108
1000.51 6.03779e-10 1.00007 0.232145
1000.69 8.10114e-10 1.00007 0.232085
1000.51 6.03796e-10 1.00007 0.232187
1000.69 8.1386e-10 1.00007 0.23211
1000.52 6.03708e-10 1.00007 0.232128
1000.51 6.02843e-10 1.00007 0.232166
1000.56 6.53239e-10 1.00007 0.232166
1000.51 6.02927e-10 1.00007 0.232203
1000.56 6.52365e-10 1.00007 0.232214
1000 0 1.00007 0.232218
1000 0 1.00007 0.232067
1000.69 8.12999e-10 1.00007 0.232114
1000.69 8.10924e-10 1.00007 0.232129
1000 0 1.00007 0.232183
1000.69 8.0833e-10 1.00007 0.232128
1000.69 8.1001e-10 1.00007 0.232127
1000.51 6.03838e-10 1.00007 0.2322
1000.51 6.03834e-10 1.00007 0.232204
1000.51 6.04132e-10 1.00007 0.232197
1000.56 6.53362e-10 1.00007 0.232238
1000.69 8.14242e-10 1.00007 0.232109
1000.69 8.12128e-10 1.00007 0.232125
1000.51 6.0343e-10 1.00007 0.23216
1000.51 6.03933e-10 1.00007 0.232192
1000 0 1.00007 0.232193
1000.69 8.07742e-10 1.00007 0.232117
1000.51 6.04298e-10 1.00007 0.232187
1000.51 6.04002e-10 1.00007 0.232202
1000.56 6.53421e-10 1.00007 0.232221
1000.56 6.53591e-10 1.00007 0.232237
1000.56 6.53487e-10 1.00007 0.232237
1000.55 6.41034e-10 1.00007 0.232234
1000.69 8.07391e-10 1.00007 0.232109
1000.51 6.04099e-10 1.00007 0.232172
1000.51 6.03124e-10 1.00007 0.232138
1000.51 6.02982e-10 1.00007 0.232179
1000.56 6.5331e-10 1.00007 0.23218
1000.56 6.52309e-10 1.00007 0.232213
1000.56 6.52679e-10 1.00007 0.23223
1000.55 6.39757e-10 1.00007 0.232225
1000.69 8.07719e-10 1.00007 0.232105
1000.55 6.40025e-10 1.00007 0.232236
1000.51 6.04317e-10 1.00007 0.232182
1000.56 6.53729e-10 1.00007 0.232239
1000.55 6.40803e-10 1.00007 0.232227
1000.55 6.42243e-10 1.00007 0.232221
1000.51 6.04153e-10 1.00007 0.232173
1000.51 6.04214e-10 1.00007 0.232171
1000.56 6.53481e-10 1.00007 0.232239
1000.69 8.08396e-10 1.00007 0.232091
1000 0 1.00007 0.232203
1000.69 8.06435e-10 1.00007 0.232114
1000.69 8.08422e-10 1.00007 0.232096
1000.51 6.03968e-10 1.00007 0.232216
1000.69 8.07169e-10 1.00007 0.232107
1000.51 6.04524e-10 1.00007 0.232182
1000.51 6.04175e-10 1.00007 0.232201
1000.56 6.53861e-10 1.00007 0.232235
1000.69 8.06501e-10 1.00007 0.23211
1000.69 8.06113e-10 1.00007 0.232117
1000.51 6.04803e-10 1.00007 0.232167
1000.51 6.06133e-10 1.00007 0.232214
1000.51 6.04539e-10 1.00007 0.232207
1000.56 6.54659e-10 1.00007 0.232232
1000.51 6.04799e-10 1.00007 0.232173
1000.56 6.53694e-10 1.00007 0.232233
1000.56 6.54117e-10 1.00007 0.23223
1000.55 6.41655e-10 1.00007 0.23221
1000.69 8.06279e-10 1.00007 0.232119
1000.51 6.04824e-10 1.00007 0.232169
1000.51 6.04647e-10 1.00007 0.232165
1000.56 6.53233e-10 1.00007 0.232231
1000.56 6.41469e-10 1.00007 0.232241
1000.56 6.53627e-10 1.00007 0.232227
1000.55 6.28737e-10 1.00007 0.232221
1000.56 6.53851e-10 1.00007 0.23223
1000.55 6.41938e-10 1.00007 0.232205
1000.55 6.41444e-10 1.00007 0.232206
1000.55 6.42941e-10 1.00007 0.232178
1000.51 6.03785e-10 1.00007 0.23216
1000.69 8.06721e-10 1.00007 0.232122
1000 0 1.00007 0.232225
1000 0 1.00007 0.232221
1000 0 1.00007 0.232216
1000.69 8.07037e-10 1.00007 0.232117
1000 0 1.00007 0.232208
1000.69 8.07136e-10 1.00007 0.232113
1000 0 1.00007 0.232201
1000.69 8.10063e-10 1.00007 0.232088
1000.69 8.12489e-10 1.00007 0.232096
1000.51 6.03791e-10 1.00007 0.232188
1000.51 6.03808e-10 1.00007 0.232146
1000.69 8.14114e-10 1.00007 0.232108
1000 0 1.00007 0.232214
1000.69 8.14061e-10 1.00007 0.232109
1000.52 6.03703e-10 1.00007 0.232128
1000.51 6.02878e-10 1.00007 0.232167
1000.56 6.53341e-10 1.00007 0.232166
1000.51 6.03004e-10 1.00007 0.232205
1000.56 6.52489e-10 1.00007 0.232214
1000.52 6.06158e-10 1.00007 0.232126
1000.56 6.58169e-10 1.00007 0.232145
1000.56 6.57229e-10 1.00007 0.23219
1000.55 6.46311e-10 1.00007 0.232174
1000.56 6.57188e-10 1.00007 0.232236
1000.55 6.45802e-10 1.00007 0.232223
1000.69 8.14058e-10 1.00007 0.232104
1000.69 8.11982e-10 1.00007 0.232132
1000.51 6.03456e-10 1.00007 0.232161
1000.51 6.03914e-10 1.00007 0.232193
1000 0 1.00007 0.232192
1000.69 8.07908e-10 1.00007 0.232129
1000.51 6.04288e-10 1.00007 0.232188
1000.51 6.03978e-10 1.00007 0.232203
1000.56 6.5336e-10 1.00007 0.23222
1000.56 6.53442e-10 1.00007 0.232237
1000.56 6.53537e-10 1.00007 0.232236
1000.55 6.41015e-10 1.00007 0.232234
1000.69 8.07573e-10 1.00007 0.23211
1000.51 6.04122e-10 1.00007 0.232172
1000.51 6.03117e-10 1.00007 0.232138
1000.51 6.03014e-10 1.00007 0.232179
1000.56 6.53399e-10 1.00007 0.23218
1000.56 6.52413e-10 1.00007 0.232213
1000.69 8.0754e-10 1.00007 0.232105
1000.51 6.04318e-10 1.00007 0.232182
1000.56 6.53772e-10 1.00007 0.232238
1000.56 6.52766e-10 1.00007 0.23223
1000.55 6.39848e-10 1.00007 0.232226
1000.55 6.40843e-10 1.00007 0.232227
1000.55 6.4009e-10 1.00007 0.232236
1000.55 6.42321e-10 1.00007 0.232221
1000.51 6.04134e-10 1.00007 0.232173
1000.56 6.53516e-10 1.00007 0.232239
1000.51 6.04185e-10 1.00007 0.232171
1000.56 6.57219e-10 1.00007 0.232157
1000.56 6.56015e-10 1.00007 0.232202
1000.55 6.44312e-10 1.00007 0.232181
1000.55 6.43618e-10 1.00007 0.23222
1000.55 6.43498e-10 1.00007 0.232233
1000.55 6.47221e-10 1.00007 0.232231
1000.51 6.04225e-10 1.00007 0.232176
1000.55 6.4641e-10 1.00007 0.232229
1000.56 6.53925e-10 1.00007 0.232242
1000.55 6.41222e-10 1.00007 0.232223
1000.55 6.44673e-10 1.00007 0.232204
1000.55 6.47573e-10 1.00007 0.232208
1000.51 6.0426e-10 1.00007 0.23217
1000.56 6.53443e-10 1.00007 0.23224
1000.56 6.53413e-10 1.00007 0.232238
1000.55 6.41497e-10 1.00007 0.23224
1000.51 6.06247e-10 1.00007 0.232216
1000.69 8.06312e-10 1.00007 0.232116
1000.69 8.0669e-10 1.00007 0.23211
1000.51 6.04836e-10 1.00007 0.232166
1000.51 6.04503e-10 1.00007 0.23221
1000.56 6.54758e-10 1.00007 0.232232
1000.51 6.0482e-10 1.00007 0.232173
1000.56 6.54063e-10 1.00007 0.232231
1000.56 6.53632e-10 1.00007 0.232234
1000.55 6.41616e-10 1.00007 0.232208
1000.69 8.06078e-10 1.00007 0.232119
1000.51 6.04794e-10 1.00007 0.232169
1000.51 6.04607e-10 1.00007 0.232165
1000.56 6.53256e-10 1.00007 0.232232
1000.56 6.42266e-10 1.00007 0.23224
1000.56 6.53614e-10 1.00007 0.232228
1000.55 6.29609e-10 1.00007 0.23222
1000.56 6.53894e-10 1.00007 0.232231
1000.55 6.41894e-10 1.00007 0.232206
1000.55 6.41494e-10 1.00007 0.232205
1000.55 6.4298e-10 1.00007 0.232181
1000.69 8.06448e-10 1.00007 0.232121
1000.51 6.04504e-10 1.00007 0.232163
1000.56 6.53594e-10 1.00007 0.232232
1000.56 6.53615e-10 1.00007 0.23223
1000.55 6.42162e-10 1.00007 0.232236
1000.54 6.92209e-10 1.00007 0.232239
1000.55 6.3516e-10 1.00007 0.232204
1000.55 6.96801e-10 1.00007 0.232202
1000.55 6.41246e-10 1.00007 0.232213
1000.55 6.38683e-10 1.00007 0.232161
1000.55 6.41421e-10 1.00007 0.232166
1000.51 6.04099e-10 1.00007 0.232161
1000.56 6.53442e-10 1.00007 0.232231
1000.51 6.03489e-10 1.00007 0.232159
1000.51 6.03725e-10 1.00007 0.23216
1000.69 8.06984e-10 1.00007 0.232147
1000.69 8.06516e-10 1.00007 0.232136
1000 0 1.00007 0.232183
1000 0 1.00007 0.232226
1000 0 1.00007 0.232221
1000.69 8.06704e-10 1.00007 0.232119
1000 0 1.00007 0.232214
1000.69 8.06841e-10 1.00007 0.232117
1000 0 1.00007 0.232208
1000.69 8.07324e-10 1.00007 0.232113
1000 0 1.00007 0.2322
1000.51 6.02927e-10 1.00007 0.232206
1000.51 6.02843e-10 1.00007 0.232168
1000.56 6.52365e-10 1.00007 0.232214
1000.56 6.53239e-10 1.00007 0.232167
1000.52 6.03708e-10 1.00007 0.232129
1000.69 8.1386e-10 1.00007 0.232109
1000.52 6.06038e-10 1.00007 0.232125
1000.56 6.58013e-10 1.00007 0.232145
1000.56 6.57097e-10 1.00007 0.232191
1000.55 6.46047e-10 1.00007 0.232172
1000.56 6.57003e-10 1.00007 0.232235
1000.55 6.45547e-10 1.00007 0.232223
1000.56 6.45672e-10 1.00007 0.23214
1000.55 6.24218e-10 1.00007 0.232148
1000.55 6.22102e-10 1.00007 0.232199
1000.55 6.20463e-10 1.00007 0.232163
1000.55 6.18071e-10 1.00007 0.232241
1000.55 6.18648e-10 1.00007 0.232209
1000.51 6.03124e-10 1.00007 0.232138
1000.51 6.02982e-10 1.00007 0.23218
1000.56 6.5331e-10 1.00007 0.23218
1000.56 6.52309e-10 1.00007 0.232213
1000.69 8.07719e-10 1.00007 0.232106
1000.51 6.04317e-10 1.00007 0.232182
1000.56 6.53729e-10 1.00007 0.232237
1000.56 6.52679e-10 1.00007 0.232231
1000.55 6.39757e-10 1.00007 0.232227
1000.55 6.40025e-10 1.00007 0.232237
1000.55 6.40803e-10 1.00007 0.232227
1000.55 6.42243e-10 1.00007 0.232221
1000.51 6.04153e-10 1.00007 0.232174
1000.56 6.53481e-10 1.00007 0.232238
1000.51 6.04214e-10 1.00007 0.232171
1000.56 6.57137e-10 1.00007 0.232155
1000.56 6.55954e-10 1.00007 0.232201
1000.55 6.44163e-10 1.00007 0.232181
1000.55 6.43531e-10 1.00007 0.23222
1000.51 6.0421e-10 1.00007 0.232176
1000.56 6.53956e-10 1.00007 0.23224
1000.55 6.413e-10 1.00007 0.232223
1000.55 6.43407e-10 1.00007 0.232233
1000.55 6.47076e-10 1.00007 0.232232
1000.55 6.44666e-10 1.00007 0.232203
1000.55 6.46281e-10 1.00007 0.23223
1000.55 6.47336e-10 1.00007 0.232207
1000.56 6.53476e-10 1.00007 0.23224
1000.55 6.41527e-10 1.00007 0.232241
1000.51 6.04223e-10 1.00007 0.23217
1000.56 6.53439e-10 1.00007 0.232237
1000.55 6.2902e-10 1.00007 0.232156
1000.55 6.27253e-10 1.00007 0.232209
1000.55 6.26611e-10 1.00007 0.232173
1000.55 6.27694e-10 1.00007 0.232227
1000.55 6.29092e-10 1.00007 0.232232
1000.55 6.22135e-10 1.00007 0.232233
1000.56 6.53804e-10 1.00007 0.232242
1000.55 6.25903e-10 1.00007 0.232221
1000.55 6.40782e-10 1.00007 0.232228
1000.55 6.41038e-10 1.00007 0.232191
1000.55 6.34008e-10 1.00007 0.23218
1000.55 6.22492e-10 1.00007 0.23219
1000.51 6.0438e-10 1.00007 0.232169
1000.56 6.53273e-10 1.00007 0.232237
1000.55 6.41613e-10 1.00007 0.232241
1000.55 6.41547e-10 1.00007 0.232237
1000.55 6.43945e-10 1.00007 0.232218
1000.69 8.06279e-10 1.00007 0.232119
1000.56 6.41469e-10 1.00007 0.23224
1000.51 6.04647e-10 1.00007 0.232164
1000.51 6.04824e-10 1.00007 0.232168
1000.56 6.53233e-10 1.00007 0.232233
1000.56 6.53627e-10 1.00007 0.232229
1000.55 6.28737e-10 1.00007 0.232219
1000.56 6.53851e-10 1.00007 0.232232
1000.55 6.41444e-10 1.00007 0.232205
1000.55 6.41938e-10 1.00007 0.232206
1000.55 6.42941e-10 1.00007 0.232184
1000.69 8.06245e-10 1.00007 0.232121
1000.51 6.04462e-10 1.00007 0.232162
1000.56 6.53622e-10 1.00007 0.232233
1000.56 6.53637e-10 1.00007 0.232231
1000.55 6.42196e-10 1.00007 0.232236
1000.54 6.88835e-10 1.00007 0.232239
1000.55 6.35735e-10 1.00007 0.232202
1000.55 6.9318e-10 1.00007 0.232199
1000.55 6.41222e-10 1.00007 0.232214
1000.55 6.39227e-10 1.00007 0.232164
1000.55 6.41887e-10 1.00007 0.232167
1000.51 6.04414e-10 1.00007 0.232161
1000.56 6.53426e-10 1.00007 0.23223
1000.55 6.41283e-10 1.00007 0.232228
1000.55 6.41166e-10 1.00007 0.232237
1000.55 6.43008e-10 1.00007 0.232214
1000.55 4.09087e-10 1.00007 0.232223
1000.55 6.79221e-10 1.00007 0.232161
1000.55 3.96851e-10 1.00007 0.232151
1000.55 6.4219e-10 1.00007 0.232174
1000.55 6.71461e-10 1.00007 0.232138
1000.51 6.04045e-10 1.00007 0.23216
1000.56 6.53306e-10 1.00007 0.232231
1000.56 6.53448e-10 1.00007 0.232231
1000.55 6.41483e-10 1.00007 0.232247
1000.56 6.53503e-10 1.00007 0.232231
1000.51 6.03161e-10 1.00007 0.232159
1000.51 6.03424e-10 1.00007 0.232159
1000.7 8.07213e-10 1.00007 0.232147
1000.51 6.03785e-10 1.00007 0.232159
1000.69 8.06779e-10 1.00007 0.23215
1000 0 1.00007 0.232186
1000.69 8.06721e-10 1.00007 0.232148
1000 0 1.00007 0.232202
1000 0 1.00007 0.232226
1000.69 8.06349e-10 1.00007 0.232121
1000.69 8.06503e-10 1.00007 0.232119
1000 0 1.00007 0.23222
1000 0 1.00007 0.232214
1000.69 8.07037e-10 1.00007 0.232117
1000 0 1.00007 0.232207
1000.56 6.57188e-10 1.00007 0.232234
1000.56 6.57229e-10 1.00007 0.232191
1000.55 6.45802e-10 1.00007 0.232223
1000.55 6.46311e-10 1.00007 0.23217
1000.56 6.58169e-10 1.00007 0.232145
1000.52 6.06158e-10 1.00007 0.232125
1000.56 6.46131e-10 1.00007 0.23214
1000.55 6.25206e-10 1.00007 0.232147
1000.55 6.23196e-10 1.00007 0.232199
1000.55 6.21819e-10 1.00007 0.232158
1000.55 6.19352e-10 1.00007 0.23224
1000.55 6.20052e-10 1.00007 0.232207
1000.55 6.91616e-10 1.00007 0.232142
1000.55 7.46636e-10 1.00007 0.232137
1000.55 7.47732e-10 1.00007 0.232186
1000.55 7.84277e-10 1.00007 0.232129
1000.55 7.53473e-10 1.00007 0.232217
1000.54 7.77629e-10 1.00007 0.232182
1000.56 6.57219e-10 1.00007 0.232154
1000.56 6.56015e-10 1.00007 0.2322
1000.55 6.44312e-10 1.00007 0.232181
1000.55 6.43618e-10 1.00007 0.23222
1000.51 6.04225e-10 1.00007 0.232177
1000.56 6.53925e-10 1.00007 0.232239
1000.55 6.41222e-10 1.00007 0.232223
1000.55 6.43498e-10 1.00007 0.232233
1000.55 6.47221e-10 1.00007 0.232232
1000.55 6.4641e-10 1.00007 0.232232
1000.55 6.44673e-10 1.00007 0.232202
1000.55 6.47573e-10 1.00007 0.232206
1000.56 6.53443e-10 1.00007 0.232239
1000.55 6.41497e-10 1.00007 0.232241
1000.51 6.0426e-10 1.00007 0.23217
1000.56 6.53413e-10 1.00007 0.232237
1000.55 6.29621e-10 1.00007 0.232156
1000.55 6.27941e-10 1.00007 0.232209
1000.55 6.27463e-10 1.00007 0.232171
1000.55 6.28477e-10 1.00007 0.232228
1000.56 6.53834e-10 1.00007 0.232241
1000.55 6.40843e-10 1.00007 0.232229
1000.55 6.41141e-10 1.00007 0.23219
1000.55 6.29816e-10 1.00007 0.232232
1000.55 6.23193e-10 1.00007 0.232232
1000.55 6.34376e-10 1.00007 0.232181
1000.55 6.26728e-10 1.00007 0.232222
1000.55 6.23436e-10 1.00007 0.232187
1000.55 6.41652e-10 1.00007 0.232241
1000.55 6.44006e-10 1.00007 0.232218
1000.55 6.41606e-10 1.00007 0.232237
1000.51 6.0435e-10 1.00007 0.232169
1000.56 6.53313e-10 1.00007 0.232237
1000.55 7.09719e-10 1.00007 0.232137
1000.55 7.01546e-10 1.00007 0.232197
1000.55 7.23274e-10 1.00007 0.232223
1000.55 7.05955e-10 1.00007 0.232229
1000.55 6.40937e-10 1.00007 0.232237
1000.55 7.28578e-10 1.00007 0.232189
1000.55 6.42076e-10 1.00007 0.232195
1000.55 6.71233e-10 1.00007 0.232163
1000.55 7.00453e-10 1.00007 0.232164
1000.51 6.04465e-10 1.00007 0.232168
1000.56 6.53706e-10 1.00007 0.232237
1000.55 6.42402e-10 1.00007 0.232236
1000.55 6.43963e-10 1.00007 0.232217
1000.55 6.44644e-10 1.00007 0.232208
1000.55 6.44201e-10 1.00007 0.232204
1000.69 8.06448e-10 1.00007 0.232121
1000.51 6.04504e-10 1.00007 0.232162
1000.54 6.92209e-10 1.00007 0.232238
1000.56 6.53615e-10 1.00007 0.232232
1000.56 6.53594e-10 1.00007 0.232234
1000.55 6.42162e-10 1.00007 0.232236
1000.55 6.3516e-10 1.00007 0.232201
1000.55 6.96801e-10 1.00007 0.232196
1000.55 6.41246e-10 1.00007 0.232215
1000.55 6.41421e-10 1.00007 0.232167
1000.55 6.38683e-10 1.00007 0.232168
1000.51 6.04366e-10 1.00007 0.232161
1000.56 6.53438e-10 1.00007 0.232231
1000.55 6.41259e-10 1.00007 0.232229
1000.55 6.41135e-10 1.00007 0.232237
1000.55 6.42968e-10 1.00007 0.232214
1000.55 4.24214e-10 1.00007 0.232222
1000.55 6.76383e-10 1.00007 0.232161