# vtk DataFile Version 2.0
Wound Healing Simulation
ASCII
DATASET UNSTRUCTURED_GRID
POINTS 3012 float
69.9759 18.75 4
67.2507 60.3285 4
69.976 18.75 2
73.0099 25.446 4
71.1327 20.9142 4
68.6801 16.6661 4
67.8269 19.9259 3.98538
67.2507 60.3286 2
71.1327 54.0858 4
68.6801 58.3339 4
65.6939 62.2254 4
65.3135 59.0026 3.98646
74.6784 42.3946 4
73.7221 47.2057 4
69.9759 18.75 0
73.0099 25.446 2
68.6801 16.6661 2
71.1327 20.9142 2
67.8274 19.9282 2
74.6792 32.6053 4
73.7222 27.7943 4
72.1454 23.1494 4
70.6152 26.2216 3.98495
68.8869 21.9586 3.98526
67.2507 14.6715 4
66.6385 17.9708 3.98595
65.8002 21.0241 3.97822
67.2507 60.3285 0
71.1327 54.0858 2
68.6801 58.3339 2
65.694 62.2255 2
65.3145 59.0009 2
72.1454 51.8506 4
69.9759 56.25 4
68.8374 53.1128 3.98438
64.0165 64.0165 4
66.612 57.1348 3.98602
63.887 60.7675 3.98814
63.5034 57.7752 3.98061
60.3285 67.2507 4
74.6792 42.3947 2
73.7222 47.2057 2
74.9194 39.9526 4
74.2788 44.8158 4
72.1687 42.0857 3.98302
73.0099 49.554 4
71.2501 46.5982 3.98405
73.0099 25.446 0
71.1327 20.9142 0
68.6801 16.6661 0
67.8269 19.9259 0.0146204
74.6792 32.6053 2
73.7222 27.7943 2
67.2508 14.6715 2
72.1455 23.1494 2
70.6152 26.2222 2
66.6394 17.9728 2
68.8872 21.9606 2
65.8 21.024 2
74.9197 35.0474 4
74.2794 30.1841 4
72.1854 32.9433 3.98342
71.2791 28.4316 3.98455
69.8166 24.0605 3.98508
68.3492 26.9513 3.97599
66.7651 22.933 3.97691
65.694 12.7746 4
65.3252 16.1017 3.98725
64.7173 19.1921 3.97981
63.8906 22.0335 3.97418
71.1327 54.0858 0
65.6939 62.2254 0
68.6801 58.3339 0
65.3135 59.0026 0.0135446
72.1455 51.8506 2
69.9759 56.25 2
68.8377 53.1106 2
64.0165 64.0165 2
66.6129 57.1324 2
63.888 60.7665 2
63.5036 57.7761 2
62.2254 65.694 4
58.8952 65.4151 3.99246
69.7698 50.9885 3.98424
67.7849 55.1676 3.98502
66.6515 52.2098 3.97584
62.3373 62.4287 3.99012
64.6641 56.0342 3.97999
62.2053 59.4087 3.98177
61.827 56.6862 3.97712
58.3339 68.6801 4
60.3285 67.2508 2
73.7221 47.2057 0
74.6784 42.3946 0
74.9197 39.9526 2
74.2794 44.8159 2
72.1685 42.0856 2
73.0099 49.554 2
71.2502 46.5977 2
75 37.5 4
72.4058 39.8023 3.98282
71.7833 44.3531 3.98365
69.8053 41.7901 3.97393
70.576 48.8133 3.9841
68.9144 46.0156 3.97507
74.6792 32.6053 0
73.7222 27.7943 0
67.2507 14.6715 0
72.1454 23.1494 0
70.6152 26.2216 0.015052
68.8869 21.9586 0.0147443
66.6385 17.9708 0.0140522
65.8002 21.0241 0.021781
74.9197 35.0474 2
74.2794 30.1841 2
72.1851 32.9434 2
71.2791 28.4318 2
65.694 12.7745 2
65.3261 16.1029 2
69.8168 24.0617 2
68.3491 26.9515 2
64.7174 19.1915 2
66.7648 22.9332 2
63.8904 22.0331 2
72.4136 35.2242 3.98284
71.8046 30.6764 3.98383
69.8414 33.2681 3.97456
68.9685 29.0378 3.97576
67.6135 24.9121 3.97612
66.1973 27.6337 3.97262
64.0165 10.9835 4
64.7593 23.8292 3.97313
63.8914 14.3254 3.98868
63.5167 17.4425 3.98185
62.9113 20.3168 3.97549
62.0957 22.9412 3.97186
60.6848 11.0963 3.99086
57.6132 11.443 3.98518
72.1454 51.8506 0
69.9759 56.25 0
68.8374 53.1128 0.0156249
64.0165 64.0165 0
63.887 60.7675 0.0118556
66.612 57.1348 0.0139751
63.5034 57.7752 0.0193934
62.2255 65.694 2
58.8956 65.4151 2
69.77 50.9871 2
67.7854 55.1651 2
66.6512 52.2095 2
62.3381 62.4283 2
64.6642 56.0348 2
62.2055 59.4097 2
61.8272 56.6872 2
60.6697 63.9781 3.99146
57.0259 66.7359 3.99307
57.5591 63.6952 3.98672
67.5093 50.1772 3.97503
65.7046 54.1746 3.97747
64.5394 51.3867 3.97166
60.7748 60.9422 3.98333
62.8243 55.0719 3.9767
60.6615 58.1653 3.97779
60.3318 55.7911 3.97619
56.25 69.9759 4
58.3339 68.6801 2
60.3285 67.2507 0
58.922 9.65462 3.9917
62.2254 9.30607 4
73.0099 49.554 0
74.2788 44.8158 0
71.2501 46.5982 0.0159531
72.1687 42.0857 0.0169787
74.9194 39.9526 0
75 37.5 2
72.4057 39.8024 2
71.7832 44.3527 2
69.8051 41.7899 2
70.576 48.8125 2
68.9144 46.0153 2
72.4891 37.5121 3.98265
70.042 39.6576 3.97337
69.4322 43.9082 3.97467
67.5986 41.4983 3.97044
68.2678 48.1078 3.97485
66.7123 45.4415 3.97164
74.9197 35.0474 0
74.2794 30.1841 0
72.1854 32.9433 0.0165765
71.2791 28.4316 0.0154458
65.694 12.7746 0
65.3252 16.1017 0.0127533
69.8166 24.0605 0.0149222
68.3492 26.9513 0.0240063
66.7651 22.933 0.0230948
64.7173 19.1921 0.020188
63.8906 22.0335 0.0258237
72.4135 35.2241 2
71.8046 30.6765 2
69.8412 33.2683 2
68.9685 29.038 2
64.0165 10.9835 2
63.8921 14.3261 2
63.517 17.4415 2
67.6133 24.9123 2
66.1972 27.6337 2
62.9114 20.316 2
64.759 23.829 2
62.0957 22.9409 2
60.6854 11.0967 2
57.6134 11.4422 2
70.0587 35.3919 3.97358
69.4687 31.1493 3.97481
67.657 33.5903 3.97118
66.7749 29.6218 3.97194
65.5264 25.6987 3.97265
64.149 28.2541 3.97178
62.3426 12.6535 3.98981
62.8588 24.6363 3.97134
62.2016 15.7799 3.98311
61.8182 18.6793 3.97775
61.2214 21.3382 3.97282
60.4271 23.7258 3.97143
59.2473 12.7745 3.98361
55.875 10.2297 3.98669
56.4061 13.1074 3.98191
69.7698 50.9885 0.0157646
62.2254 65.694 0
58.8952 65.4151 0.00754479
67.7849 55.1676 0.0149803
66.6515 52.2098 0.0241623
62.3373 62.4287 0.00988222
62.2053 59.4087 0.01823
64.6641 56.0342 0.0200106
61.827 56.6862 0.0228845
60.6703 63.9778 2
57.0262 66.736 2
57.5591 63.6963 2
67.5091 50.1768 2
65.7044 54.1746 2
64.5391 51.3867 2
60.7751 60.9433 2
62.8244 55.0727 2
60.6618 58.1665 2
60.3321 55.7919 2
55.0713 67.9329 3.99332
59.2206 62.37 3.98443
55.8058 64.913 3.98873
56.3282 62.0954 3.98301
65.3333 49.4096 3.97112
63.7085 53.2945 3.97308
62.4421 50.654 3.96963
59.3356 59.563 3.98054
61.0806 54.3135 3.97556
59.2922 57.0182 3.97477
59.2456 55.1877 3.97742
48.1037 68.5807 3.98979
50.9489 69.9325 3.99364
54.0858 71.1327 4
56.25 69.976 2
58.3339 68.6801 0
57.0592 8.33473 3.992
60.3285 7.74928 4
58.9225 9.65486 2
62.2255 9.30602 2
70.576 48.8133 0.0159001
71.7833 44.3531 0.0163528
68.9144 46.0156 0.0249288
69.8053 41.7901 0.0260653
72.4058 39.8023 0.0171842
75 37.5 0
72.4889 37.5121 2
70.042 39.6575 2
69.4321 43.908 2
67.5985 41.4983 2
68.2677 48.1074 2
66.7123 45.4415 2
70.1301 37.5216 3.9735
67.8352 39.5128 3.97001
67.2257 43.4712 3.97097
65.5572 41.2107 3.97008
66.0706 47.4194 3.97142
64.6549 44.8502 3.97057
72.4136 35.2242 0.0171578
71.8046 30.6764 0.016173
69.8414 33.2681 0.0254427
68.9685 29.0378 0.0242418
64.0165 10.9835 0
63.8914 14.3254 0.0113154
63.5167 17.4425 0.0181496
67.6135 24.9121 0.0238803
66.1973 27.6337 0.0273833
64.7593 23.8292 0.0268735
62.9113 20.3168 0.024509
62.0957 22.9412 0.028138
60.6848 11.0963 0.00913687
57.6132 11.443 0.0148184
70.0587 35.392 2
69.4688 31.1494 2
67.6569 33.5903 2
66.775 29.6217 2
62.3432 12.654 2
62.2017 15.7791 2
61.8185 18.6781 2
65.5262 25.6986 2
64.1489 28.254 2
61.2216 21.3375 2
62.8587 24.6361 2
60.4271 23.7255 2
59.2474 12.7739 2
56.4061 13.1064 2
55.8751 10.2289 2
67.8713 35.5473 3.97017
67.267 31.6218 3.97108
65.6993 33.9266 3.97048
64.6654 30.1907 3.97058
63.54 26.4132 3.97164
62.2599 28.7762 3.97199
60.7769 14.219 3.98334
61.0455 25.3364 3.97101
60.6162 17.1216 3.98022
60.2265 19.8113 3.97487
59.6633 22.2557 3.97107
58.9778 24.3184 3.97257
54.0381 9.13289 3.98745
57.9116 14.3261 3.98167
54.7874 12.0066 3.98331
55.3133 14.6394 3.98043
67.5093 50.1772 0.024973
57.0259 66.7359 0.00692578
60.6697 63.9781 0.00854127
57.5591 63.6952 0.0132828
65.7046 54.1746 0.0225273
64.5394 51.3867 0.028343
60.7748 60.9422 0.0166678
60.6615 58.1653 0.022209
62.8243 55.0719 0.0233043
60.3318 55.7911 0.0238079
55.0716 67.933 2
59.2207 62.3711 2
55.8057 64.9139 2
56.3282 62.0967 2
65.3332 49.4095 2
63.7085 53.2949 2
62.442 50.654 2
59.3358 59.5644 2
61.0809 54.3142 2
59.2926 57.0191 2
59.2461 55.1881 2
53.0431 69.0007 3.99354
53.9681 66.0152 3.98937
57.8822 60.8756 3.9818
54.685 63.2126 3.98499
55.2126 60.6227 3.98121
63.1949 48.663 3.96959
61.7423 52.5776 3.97079
60.2718 50.0216 3.96868
58.0204 58.2672 3.97714
59.3297 53.9509 3.975
58.1289 55.816 3.9729
50.1104 67.8587 3.98974
47.4642 66.5847 3.98739
46.0573 69.1601 3.98985
48.1037 68.5812 2
48.803 70.7238 3.99373
50.9491 69.9327 2
51.8506 72.1454 4
54.0858 71.1327 2
56.25 69.9759 0
55.1035 7.13925 3.99229
58.3339 6.31992 4
57.0596 8.33472 2
60.3286 7.74926 2
58.922 9.65462 0.00830262
62.2254 9.30607 0
68.2678 48.1078 0.0251544
69.4322 43.9082 0.0253266
66.7123 45.4415 0.0283593
67.5986 41.4983 0.0295558
70.042 39.6576 0.0266297
72.4891 37.5121 0.0173548
70.13 37.5216 2
67.8352 39.5127 2
67.2256 43.4712 2
65.557 41.2107 2
66.0705 47.4194 2
64.6548 44.8503 2
67.9316 37.5221 3.97004
65.7881 39.3708 3.9698
65.178 43.0267 3.97017
63.7521 40.9307 3.97112
63.9672 46.7186 3.9702
62.8099 44.2185 3.97172
70.0587 35.3919 0.0264182
69.4687 31.1493 0.0251869
67.657 33.5903 0.0288189
66.7749 29.6218 0.0280559
62.3426 12.6535 0.0101928
62.2016 15.7799 0.0168925
61.8182 18.6793 0.0222515
65.5264 25.6987 0.0273519
64.149 28.2541 0.0282247
62.8588 24.6363 0.0286555
61.2214 21.3382 0.027182
60.4271 23.7258 0.028573
59.2473 12.7745 0.016386
56.4061 13.1074 0.0180916
55.875 10.2297 0.0133101
67.8712 35.5473 2
67.2671 31.6217 2
65.6992 33.9266 2
64.6655 30.1906 2
60.7769 14.2184 2
60.6162 17.1205 2
60.2269 19.8103 2
63.5398 26.4132 2
62.2599 28.7761 2
59.6636 22.2551 2
61.0454 25.3363 2
58.978 24.3185 2
57.9114 14.3253 2
55.3132 14.6384 2
54.0381 9.13219 2
54.7874 12.0055 2
65.8769 35.6665 3.96974
65.1875 32.1534 3.96993
64.2834 34.2493 3.97072
62.5972 30.6345 3.97108
61.6526 27.0707 3.97143
60.852 29.1388 3.97309
59.3127 15.6629 3.98139
59.3293 25.7945 3.9721
59.1267 18.3494 3.97832
58.7422 20.8501 3.97175
58.2848 23.0903 3.97058
57.966 24.663 3.97395
52.1127 8.1512 3.98806
53.0584 11.0127 3.98419
56.6778 15.7359 3.98076
53.81 13.6742 3.98171
54.377 15.9916 3.98032
55.0713 67.9329 0.00667619
65.3333 49.4096 0.0288844
55.8058 64.913 0.0112695
59.2206 62.37 0.0155711
56.3282 62.0954 0.0169891
63.7085 53.2945 0.026918
62.4421 50.654 0.0303744
59.3356 59.563 0.019461
59.2922 57.0182 0.0252298
61.0806 54.3135 0.02444
59.2456 55.1877 0.0225825
53.0434 69.0009 2
53.968 66.0159 2
57.8822 60.8768 2
54.6849 63.2137 2
55.2126 60.6242 2
63.1947 48.663 2
61.7426 52.578 2
60.2715 50.0216 2
58.0209 58.2687 2
59.3302 53.9512 2
58.1295 55.8161 2
52.0716 67.0018 3.98964
52.9543 64.223 3.98651
56.6498 59.4951 3.97994
[...]
POINT_DATA 3012
SCALARS Jp_lamdaP float 4
LOOKUP_TABLE default
0.999989 1 1 0.999989
1 1 1 1
0.99999 1 1 0.99999
0.999966 1 1 0.999966
0.999983 1 1 0.999983
0.999994 1 1 0.999994
0.999797 1 1 0.999797
1 1 1 1
1 1 1 1
1 1 1 1
1 1 1 1
0.999917 1 1 0.999917
0.999937 1 1 0.999937
0.999964 1 1 0.999964
0.999991 1 1 0.999991
0.999969 1 1 0.999969
0.999996 1 1 0.999996
0.999985 1 1 0.999985
0.9998 1 1 0.9998
1 1 1 1
0.99996 1 1 0.99996
0.999974 1 1 0.999974
0.999689 1 1 0.999689
0.999762 1 1 0.999762
1 1 1 1
0.999838 1 1 0.999838
0.999473 1 1 0.999473
1 1 1 1
0.999988 1 1 0.999988
0.999997 1 1 0.999997
1 1 1 1
0.999924 1 1 0.999924
0.999972 1 1 0.999972
0.99999 1 1 0.99999
0.999826 1 1 0.999826
1 1 1 1
0.999896 1 1 0.999896
0.999946 1 1 0.999946
0.999547 1 1 0.999547
1 1 1 1
1 1 1 1
0.999981 1 1 0.999981
1 1 1 1
0.999955 1 1 0.999955
0.999659 1 1 0.999659
1 1 1 1
0.999764 1 1 0.999764
0.999972 1 1 0.999972
0.999987 1 1 0.999987
0.999997 1 1 0.999997
0.999803 1 1 0.999803
0.99997 1 1 0.99997
0.999964 1 1 0.999964
1 1 1 1
0.999978 1 1 0.999978
0.99969 1 1 0.99969
0.999841 1 1 0.999841
0.999765 1 1 0.999765
0.999461 1 1 0.999461
1 1 1 1
0.999951 1 1 0.999951
0.999714 1 1 0.999714
0.999671 1 1 0.999671
0.999723 1 1 0.999723
0.999218 1 1 0.999218
0.999353 1 1 0.999353
1 1 1 1
0.999893 1 1 0.999893
0.999562 1 1 0.999562
0.999103 1 1 0.999103
1 1 1 1
1 1 1 1
1 1 1 1
0.999931 1 1 0.999931
1 1 1 1
1 1 1 1
0.999821 1 1 0.999821
1 1 1 1
0.999898 1 1 0.999898
0.999956 1 1 0.999956
0.999545 1 1 0.999545
1 1 1 1
1 1 1 1
0.999779 1 1 0.999779
0.999853 1 1 0.999853
0.999282 1 1 0.999282
0.999979 1 1 0.999979
0.999498 1 1 0.999498
0.999595 1 1 0.999595
0.999292 1 1 0.999292
1 1 1 1
1 1 1 1
1 1 1 1
1 1 1 1
1 1 1 1
0.999974 1 1 0.999974
0.999687 1 1 0.999687
0.999983 1 1 0.999983
0.999758 1 1 0.999758
1 1 1 1
0.999628 1 1 0.999628
0.999736 1 1 0.999736
0.99899 1 1 0.99899
0.999783 1 1 0.999783
0.999087 1 1 0.999087
0.999946 1 1 0.999946
0.999967 1 1 0.999967
1 1 1 1
0.99998 1 1 0.99998
0.999692 1 1 0.999692
0.999768 1 1 0.999768
0.999843 1 1 0.999843
0.999448 1 1 0.999448
1 1 1 1
0.999956 1 1 0.999956
0.999649 1 1 0.999649
0.999672 1 1 0.999672
1 1 1 1
0.999916 1 1 0.999916
0.999726 1 1 0.999726
0.999196 1 1 0.999196
0.999548 1 1 0.999548
0.999367 1 1 0.999367
0.999104 1 1 0.999104
0.999644 1 1 0.999644
0.999656 1 1 0.999656
0.999062 1 1 0.999062
0.999147 1 1 0.999147
0.999253 1 1 0.999253
0.998866 1 1 0.998866
1 1 1 1
0.999028 1 1 0.999028
0.999974 1 1 0.999974
0.999596 1 1 0.999596
0.999179 1 1 0.999179
0.998948 1 1 0.998948
0.999998 1 1 0.999998
0.999759 1 1 0.999759
1 1 1 1
1 1 1 1
0.999827 1 1 0.999827
1 1 1 1
0.999967 1 1 0.999967
0.999902 1 1 0.999902
0.999543 1 1 0.999543
1 1 1 1
1 1 1 1
0.999794 1 1 0.999794
0.999865 1 1 0.999865
0.999285 1 1 0.999285
0.999986 1 1 0.999986
0.999499 1 1 0.999499
0.999594 1 1 0.999594
0.999283 1 1 0.999283
0.999997 1 1 0.999997
1 1 1 1
0.999799 1 1 0.999799
0.999187 1 1 0.999187
0.999403 1 1 0.999403
0.998974 1 1 0.998974
0.99966 1 1 0.99966
0.999234 1 1 0.999234
0.999324 1 1 0.999324
0.999185 1 1 0.999185
1 1 1 1
1 1 1 1
1 1 1 1
1 1 1 1
1 1 1 1
1 1 1 1
1 1 1 1
0.99975 1 1 0.99975
0.999675 1 1 0.999675
1 1 1 1
1 1 1 1
0.99963 1 1 0.99963
0.999731 1 1 0.999731
0.99899 1 1 0.99899
0.999768 1 1 0.999768
0.999088 1 1 0.999088
0.999617 1 1 0.999617
0.998932 1 1 0.998932
0.999047 1 1 0.999047
0.998712 1.00002 1 0.998695
0.999128 1 1 0.999128
0.9988 1 1 0.9988
1 1 1 1
0.999961 1 1 0.999961
0.99958 1 1 0.99958
0.999672 1 1 0.999672
1 1 1 1
0.999939 1 1 0.999939
0.999729 1 1 0.999729
0.999175 1 1 0.999175
0.999382 1 1 0.999382
0.999535 1 1 0.999535
0.999105 1 1 0.999105
0.999641 1 1 0.999641
0.999657 1 1 0.999657
0.999018 1 1 0.999018
0.999164 1 1 0.999164
1 1 1 1
0.999967 1 1 0.999967
0.999615 1 1 0.999615
0.999254 1 1 0.999254
0.99884 1 1 0.99884
0.999175 1 1 0.999175
0.999041 1 1 0.999041
0.998951 1 1 0.998951
0.999996 1 1 0.999996
0.999759 1 1 0.999759
0.998944 1 1 0.998944
0.999118 1 1 0.999118
0.998753 1 1 0.998753
0.998773 1 1 0.998773
0.998955 1 1 0.998955
0.998739 1 1 0.998739
0.99999 1 1 0.99999
0.998881 1 1 0.998881
0.999638 1 1 0.999638
0.999282 1 1 0.999282
0.999025 1 1 0.999025
0.998897 1 1 0.998897
0.999694 1 1 0.999694
0.999837 1 1 0.999837
0.999455 1 1 0.999455
0.999791 1 1 0.999791
1 1 1 1
1 1 1 1
0.99987 1 1 0.99987
0.999287 1 1 0.999287
0.999992 1 1 0.999992
0.999594 1 1 0.999594
0.9995 1 1 0.9995
0.999274 1 1 0.999274
0.999998 1 1 0.999998
1 1 1 1
0.9998 1 1 0.9998
0.999188 1 1 0.999188
0.999406 1 1 0.999406
0.998974 1 1 0.998974
0.99966 1 1 0.99966
0.999242 1 1 0.999242
0.999323 1 1 0.999323
0.999175 1 1 0.999175
1 1 1 1
0.999725 1 1 0.999725
0.999874 1 1 0.999874
0.999512 1 1 0.999512
0.998882 1 1 0.998882
0.999121 1 1 0.999121
0.999013 1.00019 1 0.998821
0.999393 1 1 0.999393
0.999126 1 1 0.999126
0.999412 1 1.00026 0.999152
0.999094 1 1 0.999094
0.999974 1 1 0.999974
1 1 1 1
1 1 1 1
1 1 1 1
1 1 1 1
1 1 1 1
1 1 1 1
1 1 1 1
1 1 1 1
0.999769 1 1 0.999769
0.999719 1 1 0.999719
0.999088 1 1 0.999088
0.99899 1 1 0.99899
0.999632 1 1 0.999632
1 1 1 1
0.999616 1 1 0.999616
0.998933 1 1 0.998933
0.999047 1 1 0.999047
0.998704 1.00001 1 0.998694
0.999128 1 1 0.999128
0.9988 1 1 0.9988
0.998918 1 1 0.998918
0.99869 1.00005 1 0.998636
0.998754 1 1 0.998754
1.00007 1.00145 1 0.998615
0.998838 1 1 0.998838
0.999001 1.0003 1 0.998704
0.999638 1 1 0.999638
0.999657 1 1 0.999657
0.998973 1 1 0.998973
0.99918 1 1 0.99918
1 1 1 1
0.99996 1 1 0.99996
0.999634 1 1 0.999634
0.999256 1 1 0.999256
0.998813 1 1 0.998813
0.999054 1 1 0.999054
0.999171 1 1 0.999171
0.998953 1 1 0.998953
0.999994 1 1 0.999994
0.999759 1 1 0.999759
0.99893 1 1 0.99893
0.999117 1 1 0.999117
0.998741 1 1 0.998741
0.998801 1 1 0.998801
0.999986 1 1 0.999986
0.999637 1 1 0.999637
0.999301 1 1 0.999301
0.998955 1 1 0.998955
0.998737 1 1 0.998733
0.999004 1 1 0.999004
0.998882 1 1 0.998882
0.998901 1 1 0.998898
0.999695 1 1 0.999695
0.999453 1 1 0.999453
0.999836 1 1 0.999836
0.998717 1.00002 1 0.998696
0.998779 1 1 0.998779
0.999613 1.00101 1 0.99861
0.998764 1.00009 1 0.998675
0.998808 1 1 0.998808
0.999242 1.00051 1 0.998735
0.999662 1 1 0.999662
0.999023 1.00018 1 0.998848
0.999398 1 1 0.999398
0.999101 1 1 0.999101
0.998895 1 1 0.998895
0.998941 1 1 0.998941
0.999897 1 1 0.999897
0.999443 1 1 0.999443
0.999489 1 1 0.999489
0.999342 1 1 0.999342
0.999189 1 1 0.999189
1 1 1 1
1 1 1 1
0.999801 1 1 0.999801
0.99941 1 1 0.99941
0.998974 1 1 0.998974
0.999661 1 1 0.999661
0.999321 1 1 0.999321
0.999251 1 1 0.999251
0.999164 1 1 0.999164
1 1 1 1
0.999725 1 1 0.999725
0.999877 1 1 0.999877
0.99951 1 1 0.99951
0.998881 1 1 0.998881
0.999123 1 1 0.999123
0.998956 1.00014 1 0.998821
0.999394 1 1 0.999394
0.999136 1 1 0.999136
0.999271 1 1.00012 0.999146
0.99913 1 1 0.99913
1 1 1 1
0.999922 1 1 0.999922
0.999457 1 1 0.999457
0.999581 1 1 0.999581
0.999348 1 1 0.999348
0.999005 1.00026 1 0.998749
0.99898 1 1 0.99898
0.999075 1.00031 1 0.998767
0.999382 1 1.00018 0.999203
0.999064 1 1 0.999064
0.999271 1 1.0003 0.998976
0.999963 1 1 0.999963
0.999769 1 1 0.999769
0.999982 1 1 0.999982
0.999976 1 1 0.999976
1 1 1 1
1 1 1 1
1 1 1 1
1 1 1 1
1 1 1 1
1 1 1 1
1 1 1 1
1 1 1 1
1 1 1 1
0.999999 1 1 0.999999
1 1 1 1
0.999128 1 1 0.999128
0.999047 1 1 0.999047
0.9988 1 1 0.9988
0.998694 1 1 0.998694
0.998933 1 1 0.998933
0.999616 1 1 0.999616
0.998918 1 1 0.998918
0.998681 1.00004 1 0.998637
0.998754 1 1 0.998754
0.999958 1.00135 1 0.99861
0.998837 1 1 0.998837
0.998879 1.00018 1 0.998704
0.998678 1.00006 1 0.99862
1.00173 1.00318 1 0.998559
0.999528 1.00087 1 0.998657
1.00344 1.00484 1 0.998609
0.998815 1.00008 1 0.998732
1.00045 1.00172 1 0.998738
0.998915 1 1 0.998915
0.999117 1 1 0.999117
0.99873 1 1 0.99873
0.998829 1 1 0.998829
0.999982 1 1 0.999982
0.999637 1 1 0.999637
0.999321 1 1 0.999321
0.998955 1 1 0.998955
0.998733 1.00001 1 0.998727
0.998882 1 1 0.998882
0.998982 1 1 0.998982
0.998914 1.00002 1 0.998898
0.999696 1 1 0.999696
0.99945 1 1 0.99945
0.999834 1 1 0.999834
0.998699 1.00003 1 0.998672
0.998778 1 1 0.998778
0.999846 1.00125 1 0.9986
0.998901 1.00022 1 0.99868
0.999663 1 1 0.999663
0.999396 1 1 0.999396
0.999125 1 1 0.999125
0.998817 1 1 0.998817
0.99933 1.00059 1 0.998742
0.99888 1 1 0.99888
0.999129 1.00028 1 0.998849
0.998974 1.00002 1 0.99895
0.999446 1 1 0.999446
0.999329 1 1 0.999329
0.999894 1 1 0.999894
0.9995 1 1 0.9995
1.00038 1.00183 1 0.998554
0.99931 1.00067 1 0.998642
1.00303 1.00448 1 0.998561
0.999775 1.00111 1 0.998663
0.999543 1.00075 1 0.998796
1.00102 1.00226 1 0.998763
0.999437 1 1 0.999437
0.999596 1.00066 1 0.998931
0.999244 1 1 0.999244
0.998952 1 1 0.998952
0.998815 1 1 0.998815
0.99919 1.00024 1 0.998948
0.999927 1 1 0.999927
0.999562 1 1 0.999562
0.999337 1 1 0.999337
0.999352 1 1 0.999352
0.999286 1 1 0.999286
1 1 1 1
0.998879 1 1 0.998879
0.99988 1 1 0.99988
0.999725 1 1 0.999725
0.999508 1 1 0.999508
0.999125 1 1 0.999125
0.998895 1.00007 1 0.998821
0.999396 1 1 0.999396
0.999179 1 1.00004 0.99914
0.999147 1 1 0.999147
0.999165 1 1 0.999165
1 1 1 1
0.999926 1 1 0.999926
0.999457 1 1 0.999457
0.999581 1 1 0.999581
0.999338 1 1 0.999338
0.999042 1.0003 1 0.998747
0.998981 1 1 0.998981
0.999085 1.00032 1 0.998762
0.999355 1 1.00015 0.999206
0.999072 1 1 0.999072
0.999457 1 1.00047 0.998991
0.999947 1 1 0.999947
0.99965 1 1 0.99965
0.999279 1 1 0.999279
0.9994 1 1 0.9994
0.99925 1 1 0.99925
0.999645 1.00093 1 0.998717
0.999009 1.00009 1 0.998919
0.999307 1.00046 1 0.998845
1.00062 1 1.00159 0.999033
0.998895 1 1 0.998895
0.999966 1 1 0.999966
0.999714 1 1 0.999714
0.999754 1 1 0.999754
0.999618 1 1 0.999618
0.999778 1 1 0.999778
0.999986 1 1 0.999986
0.999983 1 1 0.999983
1 1 1 1
0.999979 1 1 0.999979
1 1 1 1
1 1 1 1
1 1 1 1
1 1 1 1
1 1 1 1
1 1 1 1
1 1 1 1
1 1 1 1
1 1 1 1
1 1 1 1
1 1 1 1
0.998835 1 1 0.998835
0.998754 1 1 0.998754
0.998758 1.00005 1 0.998705
0.999839 1.00124 1 0.998606
0.998674 1.00004 1 0.998637
0.998917 1 1 0.998917
0.998684 1.00006 1 0.998621
1.00175 1.0032 1 0.998552
0.999328 1.00067 1 0.998658
1.00341 1.00481 1 0.99861
0.998903 1.00017 1 0.99873
1.00027 1.00153 1 0.998738
1.00146 1.00294 1 0.998529
1.00626 1.00773 1 0.998551
1.0021 1.00344 1 0.998665
1.00551 1.0069 1 0.998616
1.00016 1.00142 1 0.998738
1.00286 1.00409 1 0.998775
0.998681 1.00003 1 0.998649
0.998778 1 1 0.998778
1.00007 1.00148 1 0.99859
0.999034 1.00035 1 0.998685
0.999664 1 1 0.999664
0.999393 1 1 0.999393
0.999149 1 1 0.999149
0.998827 1 1 0.998827
0.999407 1.00066 1 0.998749
0.999236 1.00039 1 0.998849
0.998864 1 1 0.998864
0.999024 1.00007 1 0.998958
0.999448 1 1 0.999448
0.999315 1 1 0.999315
0.999891 1 1 0.999891
0.99951 1 1 0.99951
1.00074 1.00219 1 0.998555
0.999416 1.00077 1 0.998643
1.00259 1.00403 1 0.998564
0.999686 1.00102 1 0.998664
0.999437 1 1 0.999437
0.999263 1 1 0.999263
0.99898 1 1.00003 0.99895
0.999582 1.00079 1 0.998791
1.00094 1.00215 1 0.998793
0.998806 1 1 0.998806
0.999888 1.00096 1 0.998932
0.999109 1.00013 1 0.998978
0.999337 1 1 0.999337
0.999282 1 1 0.999282
0.999349 1 1 0.999349
0.999905 1 1 0.999905
0.999571 1 1 0.999571
1.00542 1.0069 1 0.998526
1.00289 1.00433 1 0.998567
1.00215 1.00346 1 0.998696
1.0015 1.00266 1 0.998847
0.999335 1 1 0.999335
1.00131 1.00231 1 0.998997
0.999134 1 1 0.999134
0.998986 1 1.00022 0.998764
0.998873 1.00013 1 0.998744
0.99991 1 1 0.99991
0.99966 1 1 0.99966
0.999422 1 1 0.999422
0.999304 1 1 0.999304
0.999243 1 1 0.999243
0.999245 1 1 0.999245
1 1 1 1
0.999931 1 1 0.999931
0.99908 1.00034 1 0.998744
0.999581 1 1 0.999581
0.999456 1 1 0.999456
0.999328 1 1 0.999328
0.998983 1 1 0.998983
0.99908 1.00032 1 0.998758
0.999279 1 1.00007 0.999208
0.999478 1 1.00047 0.999005
0.99908 1 1 0.99908
0.999951 1 1 0.999951
0.999651 1 1 0.999651
0.999287 1 1 0.999287
0.999399 1 1 0.999399
0.999238 1 1 0.999238
0.999608 1.00089 1 0.998715
0.998957 1.00004 1 0.998915
0.999318 1.00046 1 0.998859
1.0002 1 1.00117 0.999025
0.998916 1 1.00005 0.998867
0.999703 1 1 0.999703
0.999439 1 1 0.999439
0.999906 1 1.00075 0.999154
0.999246 1 1 0.999246
0.999163 1 1 0.999163
1.0023 1.00341 1 0.998895
0.998918 1.0001 1 0.998821
1.00038 1.00153 1 0.998859
1.0016 1 1.00267 0.998927
0.998684 1 1 0.998684
0.999969 1 1 0.999969
0.999726 1 1 0.999726
0.999539 1 1 0.999539
0.99974 1 1 0.99974
0.999778 1 1 0.999778
0.999597 1 1 0.999597
0.999486 1 1 0.999486
0.999592 1 1 0.999592
0.999786 1 1 0.999786
0.999987 1 1 0.999987
0.999987 1 1 0.999987
1 1 1 1
0.999985 1 1 0.999985
1 1 1 1
1 1 1 1
1 1 1 1
1 1 1 1
1 1 1 1
1 1 1 1
1 1 1 1
1 1 1 1
1 1 1 1
1 1 1 1
1 1 1 1
0.998991 1.00026 1 0.998728
0.99914 1.00048 1 0.998658
1.00009 1.00136 1 0.998738
1.00339 1.00478 1 0.998611
1.00177 1.00323 1 0.998545
0.998689 1.00007 1 0.998621
1.00159 1.00307 1 0.998525
1.00614 1.0076 1 0.998551
1.00228 1.00363 1 0.998655
1.00578 1.00718 1 0.998612
0.99987 1.00113 1 0.998739
1.00264 1.00386 1 0.998793
1.00668 1.00817 1 0.998521
1.00736 1.00879 1 0.998586
1.00593 1.00726 1 0.998686
1.00313 1.00428 1 0.998853
1.00108 1.00253 1 0.998555
0.999525 1.00088 1 0.998644
1.00217 1.00361 1 0.998567
0.999606 1.00094 1 0.998665
0.999436 1 1 0.999436
0.999282 1 1 0.999282
0.999136 1 1.00019 0.998948
0.999615 1.00083 1 0.998787
1.00091 1.00209 1 0.998822
1.00017 1.00124 1 0.998933
0.998797 1 1 0.998797
0.999008 1 1 0.999008
0.999338 1 1 0.999338
0.999278 1 1 0.999278
0.999347 1 1 0.999347
0.999883 1 1 0.999883
0.99958 1 1 0.99958
1.00501 1.00649 1 0.998529
1.00294 1.00437 1 0.998574
1.00209 1.00339 1 0.998704
0.999333 1 1 0.999333
0.999193 1 1.00004 0.999157
0.999235 1 1.00048 0.998759
1.00169 1.00285 1 0.998838
0.998846 1.00007 1 0.998781
1.00087 1.00187 1 0.998999
0.999911 1 1 0.999911
0.999303 1 1 0.999303
0.999256 1 1 0.999256
0.99924 1 1 0.99924
0.999429 1 1 0.999429
0.999643 1 1 0.999643
1.00667 1.00815 1 0.998537
1.00484 1.00626 1 0.99859
1.00386 1.00512 1 0.998751
1.00384 1.00491 1 0.998927
0.999273 1 1 0.999273
0.999929 1.0011 1 0.998831
0.999525 1 1.00061 0.998912
0.999603 1 1.00098 0.998629
0.999932 1 1 0.999932
0.999709 1 1 0.999709
0.999487 1 1 0.999487
0.999262 1 1 0.999262
0.999249 1 1 0.999249
0.99919 1 1 0.99919
0.999955 1 1 0.999955
0.999651 1 1 0.999651
0.999573 1.00086 1 0.998713
0.999398 1 1 0.999398
0.999296 1 1 0.999296
0.999225 1 1 0.999225
0.998911 1 1 0.998911
0.999342 1.00047 1 0.998873
0.999831 1 1.00082 0.999016
0.99903 1 1.00019 0.99884
0.999703 1 1 0.999703
0.999446 1 1 0.999446
0.99963 1 1.00046 0.999169
0.999252 1 1 0.999252
0.99917 1 1 0.99917
1.00225 1.00335 1 0.998897
0.998907 1.00008 1 0.998823
1.00014 1.00121 1 0.998933
1.00174 1 1.00283 0.998916
0.998675 1 1.00003 0.998646
0.999502 1 1 0.999502
0.999275 1 1 0.999275
1.00128 1 1.00223 0.999056
0.999106 1 1 0.999106
1.00829 1.00939 1 0.998915
1.0049 1.00606 0.999872 0.998973
0.999541 1.00089 1 0.99865
1.00218 1 1.00352 0.998666
0.999737 1 1 0.999737
0.999549 1 1 0.999549
0.999432 1 1 0.999432
0.999778 1 1 0.999778
0.999575 1 1 0.999575
0.999786 1 1 0.999786
0.999469 1 1 0.999469
0.9996 1 1 0.9996
0.999377 1 1 0.999377
0.999471 1 1 0.999471
0.999601 1 1 0.999601
0.999788 1 1 0.999788
0.999985 1 1 0.999985
0.999986 1 1 0.999986
1 1 1 1
0.999987 1 1 0.999987
1 1 1 1
1 1 1 1
1 1 1 1
1 1 1 1
1 1 1 1
1 1 1 1
1 1 1 1
1 1 1 1
1 1 1 1
1 1 1 1
1 1 1 1
0.999587 1.00085 1 0.99874
1.00245 1.00381 1 0.998646
1.00243 1.00362 1 0.99881
1.00605 1.00745 1 0.998609
1.006 1.00746 1 0.998552
1.00174 1.00322 1 0.998522
1.0064 1.00789 1 0.998526
1.00719 1.00862 1 0.998585
1.00582 1.00714 1 0.998692
1.00375 1.00491 1 0.998848
1.00833 1.00979 1 0.998558
1.00852 1.00987 1 0.998664
1.00714 1.00837 1 0.998781
1.0046 1.00608 1 0.998533
1.00301 1.00443 1 0.99858
1.00199 1.00328 1 0.998712
0.999331 1 1 0.999331
0.99918 1 1 0.99918
0.999333 1 1.00058 0.998754
1.00181 1.00299 1 0.998829
1.0005 1.0015 1 0.999001
0.998817 1 1 0.998817
0.999301 1 1 0.999301
0.999266 1 1 0.999266
0.999236 1 1 0.999236
0.999912 1 1 0.999912
0.999436 1 1 0.999436
0.999627 1 1 0.999627
1.00722 1.00869 1 0.998538
1.00463 1.00605 1 0.99859
1.00384 1.00511 1 0.998738
0.999268 1 1 0.999268
0.999553 1 1.0006 0.998953
0.999525 1 1.00089 0.998634
1.00419 1.00525 1 0.998946
1.00009 1.00126 1 0.998825
0.999949 1 1 0.999949
0.99971 1 1 0.99971
0.999249 1 1 0.999249
0.999206 1 1 0.999206
0.999265 1 1 0.999265
0.999475 1 1 0.999475
1.00798 1.0094 1 0.998597
1.00611 1.00748 1 0.998645
1.00676 1.00798 0.999905 0.998893
1.00476 1.00578 1 0.998984
0.999479 1 1.00031 0.999164
1.00007 1.0001 1.0014 0.998567
1.00078 1 1.00201 0.998776
0.999983 1 1 0.999983
0.999805 1 1 0.999805
0.999712 1 1 0.999712
0.999508 1 1 0.999508
0.999324 1 1 0.999324
0.999146 1 1 0.999146
0.99926 1 1 0.99926
1.00063 1 1.00141 0.99922
0.999704 1 1 0.999704
0.999453 1 1 0.999453
1.00212 1.00323 1 0.9989
0.999257 1 1 0.999257
0.999401 1 1.00022 0.999184
0.999177 1 1 0.999177
0.998896 1.00007 1 0.998826
0.999879 1.00087 1 0.999007
1.0019 1 1.003 0.998905
0.998608 1 1 0.998608
0.999495 1 1 0.999495
0.999283 1 1 0.999283
1.00154 1 1.00247 0.999068
0.999118 1 1 0.999118
1.00778 1.00888 1 0.998908
1.00433 1.00542 0.999949 0.998969
0.999791 1.00111 1 0.998683
1.00171 1 1.00307 0.998647
0.999379 1 1 0.999379
1.00852 1.00981 0.999877 0.998846
0.999157 1 1 0.999157
1.00078 1 1.00185 0.998934
1.01133 1.01264 0.999722 0.998987
1.00423 1.00557 1 0.998673
1.00184 1.00008 1.00323 0.998533
0.999559 1 1 0.999559
0.999432 1 1 0.999432
0.99933 1 1 0.99933
0.999786 1 1 0.999786
0.999607 1 1 0.999607
0.999453 1 1 0.999453
0.999788 1 1 0.999788
0.999601 1 1 0.999601
0.999364 1 1 0.999364
0.999487 1 1 0.999487
0.999296 1 1 0.999296
0.999364 1 1 0.999364
0.999502 1 1 0.999502
0.999617 1 1 0.999617
0.999783 1 1 0.999783
0.999982 1 1 0.999982
0.999984 1 1 0.999984
1 1 1 1
0.999986 1 1 0.999986
1 1 1 1
1 1 1 1
1 1 1 1
1 1 1 1
1 1 1 1
0.999991 1 1 0.999991
1 1 1 1
1 1 1 1
1 1 1 1
1 1 1 1
1 1 1 1
1 1 1 1
1.00438 1.00555 1 0.998842
1.0057 1.00702 1 0.998697
1.00703 1.00846 1 0.998584
1.00611 1.00759 1 0.998532
1.00822 1.00967 1 0.998565
1.00896 1.01032 1 0.998654
1.00771 1.00893 1 0.998794
1.00827 1.00964 1 0.99864
1.00969 1.01097 1 0.998731
1.00676 1.00845 0.999444 0.998879
1.00771 1.00918 1 0.99854
1.00441 1.00583 1 0.998589
1.00394 1.00522 1 0.998725
0.999263 1 1 0.999263
0.999667 1 1.00067 0.998993
0.999415 1 1.00078 0.99864
1.00474 1.00578 1 0.998964
1.00013 1.00132 1 0.99882
0.99925 1 1 0.99925
0.999221 1 1 0.999221
0.999267 1 1 0.999267
0.999966 1 1 0.999966
0.99971 1 1 0.99971
0.999462 1 1 0.999462
1.00747 1.00887 1 0.998607
0.99998 1 1 0.99998
0.999794 1 1 0.999794
1.00589 1.00725 1 0.998643
1.00793 1.00907 1 0.998865
0.999441 1 1.00025 0.999188
1.0014 1 1.00266 0.998745
0.999625 1.00021 1.00084 0.998575
1.00436 1.00538 1 0.998983
0.999745 1 1 0.999745
0.999507 1 1 0.999507
0.999237 1 1 0.999237
0.999978 1 1.00071 0.999272
0.999126 1 1 0.999126
0.999327 1 1 0.999327
1.00857 1.00988 1 0.998703
1.00917 1.01044 1 0.998744
1.00864 1.00998 0.999601 0.999073
1.00057 1.0018 1 0.998776
1.00086 1 1.00173 0.999136
1.00354 1 1.00498 0.998566
0.999808 1 1 0.999808
0.999773 1 1 0.999773
0.999647 1 1 0.999647
0.999512 1 1 0.999512
0.999377 1 1 0.999377
0.999184 1 1 0.999184
1.00051 1 1.00146 0.999047
0.999285 1 1 0.999285
0.999488 1 1 0.999488
0.999292 1 1 0.999292
1.00748 1.00858 1 0.998901
1.00395 1.00499 1 0.998964
0.99913 1 1 0.99913
1.00172 1 1.00264 0.999081
1.00009 1.00134 1.00004 0.998715
1.0013 1 1.00268 0.998627
0.999377 1 1 0.999377
1.00869 1.00999 0.999856 0.998863
0.999161 1 1 0.999161
1.00091 1 1.002 0.998916
1.01102 1.01232 0.99974 0.998974
1.00453 1.00585 1 0.998687
1.00207 1.00007 1.00347 0.99854
0.999237 1 1 0.999237
1.0175 1.02011 0.998446 0.998997
0.99905 1 1 0.99905
1.00212 1 1.00337 0.998747
1.00537 1.00942 0.997225 0.998765
1.00189 1.00116 1.00221 0.99852
1.00692 1.00924 0.998657 0.999043
0.999431 1 1 0.999431
0.999329 1 1 0.999329
0.999254 1 1 0.999254
0.999788 1 1 0.999788
0.9996 1 1 0.9996
0.999503 1 1 0.999503
0.99935 1 1 0.99935
0.999782 1 1 0.999782
0.999608 1 1 0.999608
0.999291 1 1 0.999291
0.999501 1 1 0.999501
0.999378 1 1 0.999378