# vtk DataFile Version 2.0
Wound Healing Simulation
ASCII
DATASET UNSTRUCTURED_GRID
POINTS 3012 float
69.9759 18.75 4
67.2507 60.3285 4
69.976 18.75 2
73.0099 25.446 4
71.1327 20.9142 4
68.6801 16.6661 4
67.8206 19.9257 3.97186
67.2507 60.3286 2
71.1327 54.0858 4
68.6801 58.3339 4
65.6939 62.2254 4
65.3075 58.9988 3.97072
74.6784 42.3946 4
73.7221 47.2057 4
69.9759 18.75 0
73.0099 25.446 2
68.6801 16.6661 2
71.1327 20.9142 2
67.8212 19.9298 2
74.6792 32.6053 4
73.7222 27.7943 4
72.1454 23.1494 4
70.6109 26.2218 3.97211
68.8812 21.9575 3.97222
67.2507 14.6715 4
66.6317 17.9728 3.97069
65.73 21.049 3.96142
67.2507 60.3285 0
71.1327 54.0858 2
68.6801 58.3339 2
65.694 62.2255 2
65.3089 58.9939 2
72.1454 51.8506 4
69.9759 56.25 4
68.8316 53.1145 3.97207
64.0165 64.0165 4
66.6055 57.133 3.97182
63.8801 60.7614 3.96748
63.4593 57.7512 3.95975
60.3285 67.2507 4
74.6792 42.3947 2
73.7222 47.2057 2
74.9194 39.9526 4
74.2788 44.8158 4
72.1656 42.086 3.97407
73.0099 49.554 4
71.2461 46.5985 3.97248
73.0099 25.446 0
71.1327 20.9142 0
68.6801 16.6661 0
67.8206 19.9257 0.0281364
74.6792 32.6053 2
73.7222 27.7943 2
67.2508 14.6715 2
72.1455 23.1494 2
70.6101 26.223 2
66.6329 17.9775 2
68.8813 21.9605 2
65.7296 21.0501 2
74.9197 35.0474 4
74.2794 30.1841 4
72.1824 32.945 3.97421
71.2754 28.4329 3.97249
69.8117 24.0596 3.9723
68.3095 26.9646 3.96426
66.7011 22.9537 3.9625
65.694 12.7746 4
65.3185 16.1061 3.96966
64.6454 19.2213 3.95989
63.6954 22.1112 3.96488
71.1327 54.0858 0
65.6939 62.2254 0
68.6801 58.3339 0
65.3075 58.9988 0.0292848
72.1455 51.8506 2
69.9759 56.25 2
68.8318 53.1112 2
64.0165 64.0165 2
66.6067 57.1281 2
63.881 60.7559 2
63.4497 57.7497 2
62.2254 65.694 4
58.8899 65.4105 3.97719
69.7647 50.9902 3.97209
67.7786 55.1681 3.97213
66.5767 52.1891 3.96268
62.3311 62.4229 3.97128
64.5961 56.0095 3.96093
62.1872 59.3836 3.95781
61.6669 56.608 3.96045
58.3339 68.6801 4
60.3285 67.2508 2
73.7221 47.2057 0
74.6784 42.3946 0
74.9197 39.9526 2
74.2794 44.8159 2
72.1645 42.0851 2
73.0099 49.554 2
71.2453 46.5971 2
75 37.5 4
72.4029 39.8029 3.97498
71.7796 44.3532 3.97353
69.7863 41.7874 3.96635
70.5714 48.8143 3.97209
68.8739 46.0061 3.96546
74.6792 32.6053 0
73.7222 27.7943 0
67.2507 14.6715 0
72.1454 23.1494 0
70.6109 26.2218 0.0278881
68.8812 21.9575 0.0277834
66.6317 17.9728 0.0293075
65.73 21.049 0.0385776
74.9197 35.0474 2
74.2794 30.1841 2
72.1811 32.9451 2
71.2744 28.4337 2
65.694 12.7745 2
65.3194 16.1113 2
69.8114 24.0615 2
68.3132 26.9653 2
64.6392 19.223 2
66.7029 22.9548 2
63.6957 22.1117 2
72.4108 35.2256 3.975
71.8013 30.678 3.97371
69.8258 33.2747 3.96582
68.9376 29.0487 3.96455
67.5603 24.9289 3.96347
65.9991 27.6893 3.97304
64.0165 10.9835 4
64.5556 23.9011 3.96743
63.8833 14.3322 3.96611
63.4619 17.4733 3.95739
62.7206 20.4021 3.96218
61.7682 23.0734 3.97113
60.6793 11.1033 3.9731
57.6034 11.488 3.96333
72.1454 51.8506 0
69.9759 56.25 0
68.8316 53.1145 0.0279324
64.0165 64.0165 0
63.8801 60.7614 0.0325152
66.6055 57.133 0.0281791
63.4593 57.7512 0.0402519
62.2255 65.694 2
58.8928 65.4049 2
69.7645 50.9878 2
67.7793 55.1638 2
66.5781 52.1881 2
62.3328 62.4153 2
64.5906 56.0081 2
62.1815 59.3835 2
61.6647 56.6086 2
60.6643 63.9723 3.97533
57.0208 66.732 3.98072
57.5464 63.654 3.96909
67.4419 50.1597 3.96388
65.6313 54.152 3.96176
64.3102 51.3136 3.96814
60.7646 60.9085 3.96539
62.6375 54.9946 3.9637
60.5325 58.0861 3.95598
60.0775 55.6681 3.96633
56.25 69.9759 4
58.3339 68.6801 2
60.3285 67.2507 0
58.9168 9.6606 3.97573
62.2254 9.30607 4
73.0099 49.554 0
74.2788 44.8158 0
71.2461 46.5985 0.0275195
72.1656 42.086 0.0259285
74.9194 39.9526 0
75 37.5 2
72.4023 39.8023 2
71.779 44.3519 2
69.7889 41.787 2
70.5709 48.8126 2
68.8786 46.0056 2
72.4865 37.5131 3.9748
70.0291 39.6575 3.96645
69.407 43.9026 3.96613
67.4197 41.4802 3.9764
68.2133 48.0943 3.96489
66.5053 45.3985 3.9753
74.9197 35.0474 0
74.2794 30.1841 0
72.1824 32.945 0.0257929
71.2754 28.4329 0.0275136
65.694 12.7746 0
65.3185 16.1061 0.0303445
69.8117 24.0596 0.0277045
68.3095 26.9646 0.0357431
66.7011 22.9537 0.0374966
64.6454 19.2213 0.0401125
63.6954 22.1112 0.0351203
72.4102 35.2253 2
71.8006 30.6787 2
69.8284 33.275 2
68.9425 29.0491 2
64.0165 10.9835 2
63.8848 14.3389 2
63.4598 17.4727 2
67.5632 24.9298 2
65.997 27.6905 2
62.7244 20.4014 2
64.5546 23.902 2
61.7666 23.0744 2
60.6822 11.1087 2
57.603 11.4803 2
70.0469 35.3963 3.96622
69.4469 31.1578 3.96496
67.492 33.613 3.97578
66.5916 29.6666 3.97461
65.3189 25.7637 3.97005
63.7787 28.3562 3.97526
62.3356 12.6608 3.96969
62.5137 24.7601 3.9738
62.1793 15.8097 3.95746
61.6347 18.7724 3.95928
60.9097 21.4793 3.96733
59.9836 23.9088 3.97397
59.2362 12.8221 3.96218
55.8651 10.2778 3.97277
56.3882 13.1936 3.96417
69.7647 50.9902 0.027914
62.2254 65.694 0
58.8899 65.4105 0.0228139
67.7786 55.1681 0.0278661
66.5767 52.1891 0.0373202
62.3311 62.4229 0.0287167
62.1872 59.3836 0.0421934
64.5961 56.0095 0.0390737
61.6669 56.608 0.039551
60.6675 63.9672 2
57.0243 66.7276 2
57.549 63.662 2
67.4439 50.1587 2
65.6299 54.1507 2
64.3081 51.3129 2
60.7598 60.9097 2
62.6376 54.9952 2
60.5235 58.0857 2
60.0771 55.6687 2
55.0667 67.9297 3.98392
59.2119 62.3241 3.96672
55.7929 64.8732 3.97099
56.3135 62.0233 3.97971
65.0961 49.3431 3.97056
63.4937 53.2177 3.96581
62.0503 50.5271 3.973
59.2651 59.4928 3.95568
60.7744 54.1867 3.96964
59.0346 56.883 3.96065
58.9085 55.0333 3.97038
48.0981 68.5691 3.98014
50.9445 69.9306 3.98699
54.0858 71.1327 4
56.25 69.976 2
58.3339 68.6801 0
57.0537 8.34075 3.97528
60.3285 7.74928 4
58.9196 9.66636 2
62.2255 9.30602 2
70.5714 48.8143 0.0279114
71.7796 44.3532 0.0264749
68.8739 46.0061 0.0345353
69.7863 41.7874 0.0336519
72.4029 39.8029 0.0250219
75 37.5 0
72.4853 37.5126 2
70.0315 39.6573 2
69.4093 43.9021 2
67.4164 41.4795 2
68.215 48.0933 2
66.5017 45.3974 2
70.1176 37.5238 3.96647
67.6677 39.5056 3.9763
67.032 43.4409 3.97605
65.2025 41.1799 3.97679
65.845 47.364 3.97359
64.2607 44.7751 3.97609
72.4108 35.2256 0.0249966
71.8013 30.678 0.0262882
69.8258 33.2747 0.0341773
68.9376 29.0487 0.0354492
64.0165 10.9835 0
63.8833 14.3322 0.0338869
63.4619 17.4733 0.0426072
67.5603 24.9289 0.0365341
65.9991 27.6893 0.0269581
64.5556 23.9011 0.0325687
62.7206 20.4021 0.0378242
61.7682 23.0734 0.0288725
60.6793 11.1033 0.0269033
57.6034 11.488 0.0366669
70.0489 35.3964 2
69.4502 31.1582 2
67.4897 33.6136 2
66.5894 29.6677 2
62.3382 12.6677 2
62.1764 15.8096 2
61.6419 18.7709 2
65.3172 25.7648 2
63.7769 28.3568 2
60.9082 21.48 2
62.5123 24.7611 2
59.9828 23.9095 2
59.2353 12.8203 2
56.3883 13.1894 2
55.8661 10.2826 2
67.7127 35.5599 3.97597
67.0962 31.655 3.97544
65.3629 33.9637 3.97688
64.294 30.2738 3.97568
63.1832 26.5283 3.97517
61.7476 28.9135 3.97525
60.7635 14.2562 3.96211
60.5726 25.5149 3.97511
60.4892 17.2096 3.95587
59.915 19.9652 3.96253
59.2305 22.4493 3.97027
58.4396 24.548 3.97421
54.0292 9.17335 3.96797
57.8781 14.4027 3.95502
54.774 12.088 3.96719
55.271 14.7572 3.95548
67.4419 50.1597 0.036116
57.0208 66.732 0.0192819
60.6643 63.9723 0.0246744
57.5464 63.654 0.0309068
65.6313 54.152 0.0382358
64.3102 51.3136 0.0318609
60.7646 60.9085 0.0346054
60.5325 58.0861 0.0440182
62.6375 54.9946 0.0363004
60.0775 55.6681 0.0336727
55.0705 67.926 2
59.2096 62.3281 2
55.7957 64.8702 2
56.3121 62.0256 2
65.0936 49.3421 2
63.4922 53.2175 2
62.049 50.5268 2
59.2816 59.5018 2
60.7742 54.1871 2
59.0439 56.8862 2
58.9175 55.0357 2
53.0384 68.9974 3.98416
53.9591 65.9989 3.97136
57.8515 60.8105 3.95976
54.6621 63.1309 3.96395
55.1814 60.538 3.97754
62.7911 48.5453 3.97451
61.3894 52.449 3.97142
59.7281 49.8384 3.97334
57.8415 58.1504 3.95728
58.9352 53.7858 3.97239
57.7374 55.637 3.96332
50.1038 67.8469 3.97703
47.4557 66.5637 3.97543
46.0527 69.1505 3.98253
48.1009 68.5695 2
48.7986 70.7216 3.9884
50.9479 69.9281 2
51.8506 72.1454 4
54.0858 71.1327 2
56.25 69.9759 0
55.0986 7.14392 3.98148
58.3339 6.31992 4
57.0575 8.34698 2
60.3286 7.74926 2
58.9168 9.6606 0.0242747
62.2254 9.30607 0
68.2133 48.0943 0.0351072
69.407 43.9026 0.0338747
66.5053 45.3985 0.0246988
67.4197 41.4802 0.023602
70.0291 39.6575 0.0335513
72.4865 37.5131 0.0252018
70.1202 37.5238 2
67.6645 39.5052 2
67.0296 43.44 2
65.201 41.1794 2
65.8424 47.3629 2
64.2589 44.7745 2
67.7719 37.5251 3.9761
65.445 39.3567 3.97694
64.8071 42.9732 3.97657
63.2692 40.8863 3.97664
63.5587 46.6177 3.97499
62.2643 44.1208 3.97589
70.0469 35.3963 0.0337849
69.4469 31.1578 0.0350367
67.492 33.613 0.0242151
66.5916 29.6666 0.0253876
62.3356 12.6608 0.0303142
62.1793 15.8097 0.0425372
61.6347 18.7724 0.0407232
65.3189 25.7637 0.0299487
63.7787 28.3562 0.0247373
62.5137 24.7601 0.0261977
60.9097 21.4793 0.0326715
59.9836 23.9088 0.0260342
59.2362 12.8221 0.0378191
56.3882 13.1936 0.0358322
55.8651 10.2778 0.0272319
67.7101 35.5602 2
67.0944 31.6558 2
65.361 33.9643 2
64.2925 30.2744 2
60.7608 14.2562 2
60.4842 17.2108 2
59.9111 19.9663 2
63.1819 26.5292 2
61.7473 28.9136 2
59.2331 22.4492 2
60.572 25.5154 2
58.4374 24.5502 2
57.882 14.4011 2
55.2665 14.7463 2
54.0326 9.16701 2
54.7686 12.0919 2
65.545 35.6873 3.97691
64.8261 32.2102 3.97626
63.8475 34.2937 3.97649
62.0665 30.7427 3.9757
61.1545 27.2294 3.97499
60.2327 29.3024 3.97586
59.2351 15.7449 3.95507
58.7417 26.0204 3.97535
58.8756 18.4994 3.95906
58.3241 21.0545 3.96454
57.7644 23.3271 3.97094
57.3782 24.9207 3.97578
52.1066 8.1666 3.96912
53.0389 11.0938 3.96463
56.6033 15.8543 3.95547
53.7891 13.7811 3.97237
54.2813 16.1389 3.95557
55.0667 67.9297 0.0160817
65.0961 49.3431 0.0294355
55.7929 64.8732 0.0290107
59.2119 62.3241 0.0332848
56.3135 62.0233 0.0202908
63.4937 53.2177 0.0341945
62.0503 50.5271 0.027002
59.2651 59.4928 0.0443159
59.0346 56.883 0.039345
60.7744 54.1867 0.030364
58.9085 55.0333 0.029623
53.0421 68.995 2
53.9617 65.9964 2
57.8536 60.814 2
54.6601 63.1313 2
55.1804 60.5382 2
62.7899 48.5449 2
61.3889 52.4491 2
59.7289 49.8383 2
57.8496 58.1547 2
58.9405 53.7869 2
57.7351 55.636 2
52.0635 66.9853 3.974
52.9364 64.1685 3.97001
56.5643 59.3995 3.95492
[...]
POINT_DATA 3012
SCALARS rho_c_phif_kappa float 4
LOOKUP_TABLE default
1000 0 1.00236 0.27322
1000 0 1.0019 0.273587
1000 0 1.00236 0.27344
1000 0 1.00236 0.273778
1000 0 1.00236 0.273381
1000 0 1.00237 0.273144
1011.76 1.29088e-08 1.00279 0.27144
1000 0 1.0019 0.27359
1000 0 1.0019 0.274434
1000 0 1.0019 0.274005
1000 0 1.00237 0.273102
1011.71 1.2642e-08 1.00302 0.271389
1000 0 1.00235 0.274361
1000 0 1.00235 0.275209
1000 0 1.00236 0.273647
1000 0 1.00235 0.274375
1000 0 1.00237 0.27326
1000 0 1.00236 0.273738
1011.61 1.29507e-08 1.00279 0.271348
1000 0 1.00189 0.274381
1000 0 1.00236 0.273908
1000 0 1.00236 0.273586
1011.72 1.30701e-08 1.00277 0.272922
1011.74 1.29727e-08 1.00278 0.271987
1000 0 1.00237 0.27316
1011.79 1.28477e-08 1.00279 0.270848
1013.1 1.49878e-08 1.00322 0.265728
1000 0 1.0019 0.273614
1000 0 1.00213 0.273981
1000 0 1.00213 0.273614
1000 0 1.0019 0.273721
1011.67 1.26919e-08 1.00302 0.27134
1000 0 1.00236 0.273681
1000 0 1.00236 0.273173
1011.76 1.29979e-08 1.00278 0.271503
1000 0 1.0019 0.27452
1011.7 1.27456e-08 1.00278 0.271278
1011.76 1.25917e-08 1.00302 0.271371
1013.11 1.49244e-08 1.00323 0.264755
1000 0 1.0019 0.274852
1000 0 1.00189 0.274391
1000 0 1.00212 0.274735
1000 0 1.00189 0.27445
1000 0 1.00236 0.275366
1011.67 1.30999e-08 1.00299 0.273013
1000 0 1.00189 0.275043
1011.75 1.31353e-08 1.00277 0.27251
1000 0 1.00235 0.274994
1000 0 1.00236 0.274098
1000 0 1.00237 0.273364
1011.76 1.29088e-08 1.00278 0.271265
1000 0 1.00212 0.274748
1000 0 1.00235 0.274564
1000 0 1.00237 0.273223
1000 0 1.00236 0.27408
1011.46 1.3108e-08 1.00277 0.272621
1011.69 1.28934e-08 1.00279 0.270805
1011.54 1.30115e-08 1.00278 0.27181
1013.11 1.49838e-08 1.00322 0.265569
1000 0 1.00189 0.274455
1000 0 1.00236 0.274016
1011.66 1.30701e-08 1.00276 0.273447
1011.71 1.30902e-08 1.00277 0.273172
1011.73 1.303e-08 1.00278 0.272506
1013.07 1.50057e-08 1.0032 0.268126
1013.09 1.49953e-08 1.00321 0.266045
1000 0 1.00237 0.273394
1011.84 1.27968e-08 1.0028 0.270338
1013.11 1.4981e-08 1.00322 0.264855
1013.01 1.49465e-08 1.0032 0.258535
1000 0 1.0019 0.273732
1000 0 1.0019 0.273964
1000 0 1.0019 0.273525
1011.71 1.2642e-08 1.00302 0.271288
1000 0 1.0019 0.27392
1000 0 1.0019 0.273587
1011.56 1.3037e-08 1.00301 0.271721
1000 0 1.00213 0.274039
1011.61 1.27915e-08 1.00301 0.271381
1011.77 1.26473e-08 1.00291 0.271258
1013.11 1.49238e-08 1.00323 0.264907
1000 0 1.0019 0.274444
1012.09 1.26532e-08 1.00306 0.27235
1011.78 1.30834e-08 1.00301 0.272047
1011.73 1.28765e-08 1.00301 0.271496
1013.09 1.50012e-08 1.00321 0.265851
1011.84 1.25836e-08 1.0028 0.271235
1013.1 1.49485e-08 1.00322 0.264672
1013.14 1.49305e-08 1.00323 0.265348
1013.04 1.49846e-08 1.00321 0.258451
1000 0 1.0019 0.275169
1000 0 1.0019 0.275072
1000 0 1.0019 0.274187
1000 0 1.00189 0.274374
1000 0 1.00189 0.274434
1000 0 1.00212 0.274845
1011.34 1.3136e-08 1.00288 0.272945
1000 0 1.00212 0.274538
1011.52 1.31736e-08 1.00289 0.272728
1000 0 1.00189 0.274454
1011.66 1.30736e-08 1.00299 0.273204
1011.73 1.31224e-08 1.00277 0.272679
1013.05 1.50022e-08 1.00321 0.2697
1011.77 1.31278e-08 1.00277 0.272313
1013.07 1.5017e-08 1.00321 0.268861
1000 0 1.00235 0.274332
1000 0 1.00235 0.27526
1000 0 1.00237 0.273282
1000 0 1.00235 0.274579
1011.72 1.30701e-08 1.00277 0.272331
1011.74 1.29727e-08 1.00278 0.271644
1011.79 1.28477e-08 1.00279 0.270703
1013.1 1.49878e-08 1.00322 0.265409
1000 0 1.00189 0.274421
1000 0 1.00235 0.274674
1011.33 1.31065e-08 1.00288 0.273038
1011.46 1.31288e-08 1.00277 0.272879
1000 0 1.00214 0.273313
1011.8 1.28476e-08 1.0028 0.270665
1011.5 1.30677e-08 1.00278 0.27224
1013.09 1.49993e-08 1.0032 0.268044
1013.12 1.49789e-08 1.00322 0.264497
1013.1 1.49902e-08 1.00321 0.266189
1013.01 1.49475e-08 1.0032 0.258565
1011.63 1.30603e-08 1.00299 0.273255
1011.7 1.30882e-08 1.00277 0.27328
1013.05 1.49949e-08 1.00319 0.269627
1013.06 1.50067e-08 1.0032 0.268808
1013.08 1.50021e-08 1.0032 0.267013
1012.99 1.49189e-08 1.0032 0.26342
1000 0 1.0019 0.274061
1013 1.49334e-08 1.0032 0.259486
1011.9 1.27594e-08 1.00304 0.270618
1013.13 1.49781e-08 1.00323 0.263942
1013.02 1.49623e-08 1.0032 0.257551
1012.94 1.48608e-08 1.00319 0.25506
1012.03 1.27376e-08 1.00306 0.271309
1013.27 1.50417e-08 1.00325 0.268966
1000 0 1.0019 0.273905
1000 0 1.0019 0.273596
1011.76 1.29979e-08 1.00301 0.271756
1000 0 1.0019 0.274368
1011.76 1.25917e-08 1.00303 0.271167
1011.7 1.27456e-08 1.00301 0.271395
1013.11 1.49244e-08 1.00323 0.265066
1000 0 1.0019 0.274638
1012.16 1.2696e-08 1.00306 0.272627
1011.55 1.31209e-08 1.00289 0.27198
1011.57 1.29183e-08 1.0029 0.27142
1013.11 1.49961e-08 1.00321 0.265868
1011.87 1.26395e-08 1.00304 0.271232
1013.11 1.49468e-08 1.00322 0.264816
1013.14 1.49269e-08 1.00323 0.265653
1013.04 1.49863e-08 1.00321 0.258071
1011.93 1.2614e-08 1.00305 0.271565
1012.2 1.26993e-08 1.00307 0.273059
1013.29 1.50215e-08 1.00325 0.270537
1013.08 1.50154e-08 1.00321 0.266817
1013.09 1.49775e-08 1.00322 0.265155
1012.99 1.49174e-08 1.0032 0.259112
1013.19 1.49589e-08 1.00324 0.266787
1013.02 1.49607e-08 1.0032 0.257051
1013.06 1.50046e-08 1.00322 0.259189
1012.97 1.49028e-08 1.0032 0.255158
1000 0 1.0019 0.2753
1000 0 1.0019 0.275261
1000 0 1.0019 0.275194
1012.14 1.27575e-08 1.00307 0.27222
1000 0 1.0019 0.274456
1000 0 1.0019 0.274066
1000 0 1.00189 0.274297
1011.75 1.31353e-08 1.003 0.272983
1011.67 1.30999e-08 1.00299 0.273226
1000 0 1.00189 0.274452
1000 0 1.00189 0.274457
1011.56 1.31069e-08 1.00299 0.273225
1011.65 1.31577e-08 1.00289 0.272898
1013.09 1.49967e-08 1.00321 0.269704
1011.52 1.31653e-08 1.003 0.272608
1013.1 1.50098e-08 1.00321 0.268799
1011.61 1.30532e-08 1.00299 0.27324
1013.05 1.4994e-08 1.00321 0.269997
1013.07 1.50093e-08 1.00321 0.269346
1012.99 1.49131e-08 1.00319 0.266991
1013.08 1.50196e-08 1.00321 0.267947
1012.98 1.49137e-08 1.00319 0.26467
1000 0 1.00189 0.274437
1000 0 1.00235 0.275384
1011.66 1.30701e-08 1.003 0.273013
1011.71 1.30902e-08 1.00277 0.272584
1000 0 1.0019 0.27391
1011.84 1.27968e-08 1.00279 0.271001
1011.73 1.303e-08 1.00278 0.271986
1013.07 1.50057e-08 1.0032 0.267939
1013.09 1.49953e-08 1.00321 0.266319
1013.11 1.4981e-08 1.00322 0.264215
1013.01 1.49465e-08 1.0032 0.258596
1011.51 1.30934e-08 1.00299 0.273239
1011.62 1.31239e-08 1.00277 0.273011
1013.08 1.49898e-08 1.0032 0.269508
1013.09 1.5e-08 1.0032 0.268836
1000 0 1.0019 0.273927
1011.89 1.28177e-08 1.00292 0.270835
1013.14 1.49765e-08 1.00323 0.263952
1013.1 1.49962e-08 1.0032 0.266932
1012.98 1.49196e-08 1.0032 0.263111
1013.02 1.49629e-08 1.0032 0.257577
1013 1.49343e-08 1.0032 0.259705
1012.94 1.48609e-08 1.00319 0.255115
1012.1 1.27858e-08 1.00306 0.271214
1013.26 1.50329e-08 1.00325 0.268994
1013.04 1.49909e-08 1.00321 0.270002
1013.06 1.50029e-08 1.0032 0.269208
1012.99 1.49178e-08 1.0032 0.266724
1012.98 1.49156e-08 1.00319 0.264314
1012.99 1.49246e-08 1.0032 0.261158
1012.92 1.48389e-08 1.00319 0.260006
1011.96 1.27389e-08 1.00305 0.27066
1012.93 1.48498e-08 1.00319 0.256177
1013.17 1.49926e-08 1.00323 0.265168
1013.03 1.49774e-08 1.00321 0.256504
1012.95 1.48752e-08 1.0032 0.254204
1012.92 1.48487e-08 1.00319 0.253814
1013.24 1.50199e-08 1.00324 0.267759
1013.3 1.50679e-08 1.00325 0.270073
1013.11 1.50909e-08 1.00323 0.266573
1011.78 1.30834e-08 1.00301 0.272154
1000 0 1.0019 0.274924
1012.09 1.26532e-08 1.00306 0.272996
1011.73 1.28765e-08 1.00301 0.271502
1013.09 1.50012e-08 1.00321 0.26589
1011.84 1.25836e-08 1.00304 0.271191
1013.14 1.49305e-08 1.00323 0.265923
1013.1 1.49485e-08 1.00322 0.264978
1013.04 1.49846e-08 1.00321 0.257684
1012.02 1.26543e-08 1.00305 0.271779
1012.25 1.27343e-08 1.00307 0.273287
1013.27 1.50152e-08 1.00325 0.270655
1013.1 1.50097e-08 1.00321 0.266816
1013.11 1.4974e-08 1.00322 0.265228
1012.99 1.49186e-08 1.0032 0.259087
1013.19 1.49554e-08 1.00324 0.267136
1013.02 1.49621e-08 1.0032 0.257239
1013.06 1.50065e-08 1.00322 0.259094
1012.97 1.49036e-08 1.0032 0.254634
1012.32 1.27443e-08 1.00308 0.273519
1013.24 1.49905e-08 1.00324 0.269192
1013.31 1.50422e-08 1.00325 0.271593
1013.13 1.51098e-08 1.00323 0.268432
1012.98 1.49024e-08 1.00319 0.260523
1013 1.49388e-08 1.0032 0.257889
1012.92 1.48552e-08 1.00319 0.255383
1013.08 1.50326e-08 1.00322 0.261851
1012.94 1.48708e-08 1.0032 0.252501
1012.98 1.49095e-08 1.00321 0.254871
1012.96 1.48941e-08 1.0032 0.25364
1013.34 1.50927e-08 1.00325 0.274257
1012.51 1.28265e-08 1.0031 0.273779
1000 0 1.0019 0.27537
1000 0 1.0019 0.275358
1000 0 1.0019 0.275336
1012.26 1.28034e-08 1.00308 0.272663
1000 0 1.0019 0.274768
1012.23 1.28038e-08 1.00307 0.27191
1000 0 1.0019 0.274297
1011.77 1.31278e-08 1.003 0.272615
1011.73 1.31224e-08 1.003 0.273152
1013.07 1.5017e-08 1.00321 0.268733
1013.05 1.50022e-08 1.00321 0.269683
1011.66 1.30736e-08 1.00299 0.273252
1000 0 1.00189 0.274451
1011.23 1.30893e-08 1.00299 0.273234
1013.05 1.49893e-08 1.00321 0.269994
1013.07 1.50038e-08 1.00321 0.269299
1012.98 1.49134e-08 1.00319 0.266972
1013.1 1.50135e-08 1.00321 0.267918
1012.98 1.49144e-08 1.00319 0.264756
1013.03 1.499e-08 1.00321 0.270097
1012.98 1.49086e-08 1.00319 0.267407
1012.98 1.49152e-08 1.00319 0.266237
1012.92 1.48554e-08 1.00319 0.26484
1012.98 1.49085e-08 1.00319 0.262619
1012.92 1.48457e-08 1.00319 0.262084
1011.63 1.30603e-08 1.00299 0.273216
1011.7 1.30882e-08 1.00277 0.272698
1013.05 1.49949e-08 1.0032 0.269412
1013.06 1.50067e-08 1.00321 0.26882
1000 0 1.0019 0.273768
1011.9 1.27594e-08 1.0028 0.270726
1013.13 1.49781e-08 1.00323 0.263998
1013.08 1.50021e-08 1.0032 0.266834
1012.99 1.49189e-08 1.00319 0.262797
1013 1.49334e-08 1.0032 0.25993
1013.02 1.49623e-08 1.0032 0.257569
1012.94 1.48608e-08 1.00319 0.255157
1012.03 1.27376e-08 1.00306 0.271088
1013.27 1.50417e-08 1.00325 0.268803
1013.05 1.49864e-08 1.0032 0.269884
1013.06 1.49976e-08 1.0032 0.269246
1012.98 1.49179e-08 1.0032 0.266634
1012.98 1.49163e-08 1.00319 0.264573
1011.98 1.27918e-08 1.00305 0.270715
1013.18 1.49861e-08 1.00323 0.264831
1013.03 1.49791e-08 1.00321 0.256605
1012.99 1.49254e-08 1.0032 0.2613
1012.92 1.48385e-08 1.00319 0.259711
1012.95 1.48759e-08 1.0032 0.253965
1012.93 1.48498e-08 1.00319 0.256187
1012.92 1.48485e-08 1.00319 0.253581
1013.23 1.50206e-08 1.00324 0.267977
1013.11 1.50879e-08 1.00323 0.266545
1013.29 1.50679e-08 1.00325 0.269986
1012.99 1.49124e-08 1.0032 0.267485
1012.98 1.49154e-08 1.0032 0.265585
1012.92 1.48518e-08 1.00319 0.264888
1012.92 1.48371e-08 1.00318 0.261219
1012.92 1.48411e-08 1.00319 0.257399
1012.91 1.48243e-08 1.00318 0.257277
1013.21 1.50066e-08 1.00324 0.266666
1012.91 1.48359e-08 1.00319 0.25397
1013.05 1.50013e-08 1.00321 0.257945
1012.96 1.48807e-08 1.0032 0.25123
1012.93 1.48664e-08 1.00319 0.252135
1012.9 1.48077e-08 1.00319 0.251778
1013.32 1.5087e-08 1.00325 0.271691
1013.1 1.50637e-08 1.00322 0.264352
1013.12 1.51065e-08 1.00323 0.268727
1013.06 1.50078e-08 1.00322 0.263844
1013.08 1.50154e-08 1.00321 0.266819
1012.2 1.26993e-08 1.00307 0.273447
1011.93 1.2614e-08 1.00305 0.272006
1013.29 1.50215e-08 1.00325 0.2708
1013.09 1.49775e-08 1.00322 0.265307
1012.99 1.49174e-08 1.0032 0.25906
1013.19 1.49589e-08 1.00324 0.267559
1013.06 1.50046e-08 1.00322 0.259043
1013.02 1.49607e-08 1.00321 0.257417
1012.97 1.49028e-08 1.0032 0.254174
1012.35 1.27719e-08 1.00308 0.273641
1013.23 1.499e-08 1.00324 0.26931
1013.3 1.50392e-08 1.00325 0.271805
1013.14 1.51133e-08 1.00323 0.268625
1012.98 1.49028e-08 1.00319 0.26052
1013 1.494e-08 1.0032 0.257877
1012.93 1.48547e-08 1.00319 0.255397
1013.08 1.50381e-08 1.00322 0.262088
1012.95 1.48716e-08 1.0032 0.25286
1012.98 1.49102e-08 1.00321 0.254564
1012.96 1.4895e-08 1.0032 0.254157
1012.42 1.27828e-08 1.00309 0.27372
1013.32 1.50545e-08 1.00325 0.27292
1013.11 1.50778e-08 1.00323 0.265528
1013.14 1.51258e-08 1.00323 0.270135
1013.08 1.50318e-08 1.00323 0.26598
1012.92 1.48735e-08 1.00319 0.256824
1012.93 1.48471e-08 1.00319 0.253429
1012.91 1.48918e-08 1.00319 0.252305
1013 1.49318e-08 1.00321 0.255437
1012.94 1.48927e-08 1.00319 0.249678
1012.96 1.4905e-08 1.0032 0.251929
1013.33 1.50773e-08 1.00325 0.274187
1013.14 1.51479e-08 1.00323 0.27334
1013.35 1.51118e-08 1.00325 0.274422
1013.34 1.50932e-08 1.00325 0.274291
1012.6 1.28734e-08 1.00285 0.27416
1012.53 1.28477e-08 1.00297 0.274142
1000 0 1.00241 0.27464
1000 0 1.0019 0.275374
1000 0 1.0019 0.275369
1012.41 1.2873e-08 1.00309 0.273274
1000 0 1.0019 0.275093
1012.34 1.28479e-08 1.00308 0.272557
1000 0 1.0019 0.274639
1012.14 1.27575e-08 1.00307 0.271737
1000 0 1.0019 0.27416
1013.08 1.50196e-08 1.00321 0.267886
1013.07 1.50093e-08 1.00321 0.269283
1012.98 1.49137e-08 1.00319 0.264767
1012.99 1.49131e-08 1.00319 0.266959
1013.05 1.4994e-08 1.00321 0.269985
1011.61 1.30532e-08 1.00299 0.273215
1013.07 1.49849e-08 1.00321 0.270098
1012.98 1.49087e-08 1.00319 0.267403
1012.98 1.49158e-08 1.00319 0.266135
1012.92 1.48553e-08 1.00319 0.264781
1012.98 1.49093e-08 1.00319 0.262623
1012.92 1.48455e-08 1.00319 0.262046
1012.99 1.49075e-08 1.00319 0.267535
1012.93 1.48615e-08 1.00319 0.265609
1012.92 1.48476e-08 1.00319 0.264013
1012.92 1.48861e-08 1.00318 0.264065
1012.92 1.4844e-08 1.00319 0.258857
1012.91 1.48374e-08 1.00318 0.259495
1013.04 1.49909e-08 1.0032 0.269777
1013.06 1.50029e-08 1.0032 0.26935
1012.99 1.49178e-08 1.0032 0.266472
1012.98 1.49156e-08 1.0032 0.264868
1011.96 1.27389e-08 1.00305 0.270778
1013.17 1.49926e-08 1.00324 0.264408
1013.03 1.49774e-08 1.00321 0.256689
1012.99 1.49246e-08 1.0032 0.261455
1012.92 1.48389e-08 1.00319 0.259419
1012.93 1.48498e-08 1.00319 0.256195
1012.95 1.48752e-08 1.0032 0.253777
1012.92 1.48487e-08 1.00319 0.253424
1013.24 1.50199e-08 1.00324 0.268217
1013.11 1.50909e-08 1.00323 0.266691
1013.3 1.50679e-08 1.00325 0.270051
1012.99 1.49125e-08 1.00319 0.267393
1012.98 1.49159e-08 1.0032 0.265658
1012.92 1.48515e-08 1.00319 0.264664
1012.92 1.48368e-08 1.00319 0.261528
1013.21 1.50031e-08 1.00324 0.266345
1013.05 1.50033e-08 1.00321 0.257785
1012.96 1.48817e-08 1.0032 0.251477
1012.92 1.48409e-08 1.00319 0.257681
1012.91 1.48244e-08 1.00318 0.257036
1012.94 1.48667e-08 1.00319 0.251884
1012.91 1.48359e-08 1.00319 0.253988
1012.9 1.48074e-08 1.00319 0.252118
1013.1 1.50649e-08 1.00322 0.263986
1013.06 1.50066e-08 1.00322 0.263811
1013.31 1.50852e-08 1.00325 0.271559
1013.13 1.51089e-08 1.00323 0.269434
1012.93 1.48652e-08 1.00319 0.265559
1012.92 1.48401e-08 1.00319 0.263315
1012.91 1.48364e-08 1.00318 0.26402
1012.91 1.4836e-08 1.00318 0.258448
1012.91 1.48416e-08 1.00318 0.255246
1012.9 1.48058e-08 1.00318 0.255571
1013.07 1.50323e-08 1.00322 0.261107
1012.9 1.48014e-08 1.00318 0.251513
1012.97 1.4896e-08 1.0032 0.251215
1012.94 1.48834e-08 1.0032 0.248131
1012.91 1.48233e-08 1.00319 0.250752
1012.88 1.47147e-08 1.00318 0.250857
1013.33 1.51064e-08 1.00325 0.272664
1013.13 1.51188e-08 1.00323 0.269774
1013.03 1.49693e-08 1.00322 0.260115
1013.08 1.50356e-08 1.00323 0.266835
1013.04 1.49852e-08 1.00322 0.26054
1012.32 1.27443e-08 1.00308 0.273805
1012.98 1.49024e-08 1.00319 0.260528
1013.31 1.50422e-08 1.00325 0.272013
1013.24 1.49905e-08 1.00324 0.269341
1013.13 1.51098e-08 1.00323 0.268841
1013 1.49388e-08 1.0032 0.257855
1012.92 1.48552e-08 1.00319 0.255408
1013.08 1.50326e-08 1.00322 0.262227
1012.98 1.49095e-08 1.00321 0.254007
1012.94 1.48708e-08 1.0032 0.253242
1012.96 1.48941e-08 1.0032 0.254415
1012.44 1.28052e-08 1.00309 0.273801
1013.32 1.50545e-08 1.00325 0.273131
1013.11 1.50771e-08 1.00323 0.26591
1013.14 1.51271e-08 1.00323 0.270489
1013.08 1.50313e-08 1.00323 0.265495
1012.92 1.48762e-08 1.00319 0.256771
1012.93 1.48468e-08 1.00319 0.253436
1012.91 1.48944e-08 1.00319 0.252258
1013 1.49332e-08 1.00321 0.255553
1012.94 1.48919e-08 1.00319 0.250044
1012.96 1.49059e-08 1.0032 0.25176
1013.33 1.50659e-08 1.00325 0.273792
1013.15 1.51453e-08 1.00324 0.271106
1013.04 1.4983e-08 1.00322 0.26024
1013.1 1.50557e-08 1.00323 0.268293
1013.06 1.50151e-08 1.00323 0.262146
1012.89 1.4797e-08 1.00318 0.254647
1012.93 1.49309e-08 1.00319 0.249915
1012.8 1.42128e-08 1.00318 0.249168
1012.98 1.49305e-08 1.00321 0.250499
1012.94 1.49099e-08 1.00319 0.248347
1013.33 1.50767e-08 1.00325 0.274192
1013.14 1.51456e-08 1.00323 0.273216
1013.14 1.51489e-08 1.00323 0.273303
1013.13 1.50923e-08 1.00324 0.271962
1013.14 1.51523e-08 1.00324 0.273414
1013.35 1.51317e-08 1.00325 0.274501
1013.34 1.51095e-08 1.00325 0.274395
1012.69 1.29337e-08 1.00286 0.274208
1013.34 1.50927e-08 1.00325 0.274287
1012.61 1.28898e-08 1.00286 0.2744
1000 0 1.00241 0.274572
1012.51 1.28265e-08 1.00285 0.27437
1000 0 1.00216 0.274724
1000 0 1.0019 0.275369
1012.54 1.29373e-08 1.0031 0.273787
1012.46 1.28979e-08 1.00309 0.273066
1000 0 1.00191 0.275335
1000 0 1.0019 0.274922
1012.26 1.28034e-08 1.00308 0.27233
1000 0 1.0019 0.274498
1012.98 1.49085e-08 1.00319 0.262623
1012.98 1.49152e-08 1.00319 0.266108
1012.92 1.48457e-08 1.00319 0.262031
1012.92 1.48554e-08 1.00319 0.26472
1012.98 1.49086e-08 1.00319 0.267399
1013.03 1.499e-08 1.00321 0.27009
1012.98 1.49078e-08 1.00319 0.267538
1012.93 1.48609e-08 1.00319 0.265648
1012.92 1.48469e-08 1.00319 0.263992
1012.92 1.48856e-08 1.00318 0.263934
1012.92 1.48433e-08 1.00319 0.258795
1012.91 1.48369e-08 1.00318 0.259672
1012.93 1.48623e-08 1.00319 0.265861
1012.93 1.49634e-08 1.00318 0.2649
1012.91 1.48947e-08 1.00318 0.262396
1012.86 1.46024e-08 1.00318 0.263222
1012.91 1.48626e-08 1.00318 0.257345
1012.9 1.47891e-08 1.00318 0.258637
1012.99 1.49124e-08 1.00319 0.267312
1012.98 1.49154e-08 1.0032 0.265611
1012.92 1.48518e-08 1.00318 0.264476
1012.92 1.48371e-08 1.00319 0.261839
1013.21 1.50066e-08 1.00324 0.2661
1013.05 1.50013e-08 1.00321 0.257705
1012.96 1.48807e-08 1.0032 0.251698
1012.92 1.48411e-08 1.00319 0.257955
1012.91 1.48243e-08 1.00318 0.256812
1012.91 1.48359e-08 1.00319 0.254014
1012.93 1.48664e-08 1.00319 0.251456
1012.9 1.48077e-08 1.00319 0.252242
1013.1 1.50637e-08 1.00322 0.263538
1013.06 1.50078e-08 1.00322 0.263766
1013.32 1.5087e-08 1.00325 0.271418
1013.12 1.51065e-08 1.00323 0.269505
1012.93 1.4865e-08 1.00319 0.26556
1012.92 1.48398e-08 1.00319 0.263239
1012.91 1.48363e-08 1.00318 0.26395
1012.91 1.48361e-08 1.00318 0.258647
1013.07 1.5035e-08 1.00322 0.261086
1012.97 1.4897e-08 1.00321 0.251582
1012.94 1.48828e-08 1.0032 0.24777
1012.91 1.48414e-08 1.00318 0.25546
1012.9 1.48057e-08 1.00318 0.255483
1012.92 1.4823e-08 1.00319 0.250398
1012.9 1.48012e-08 1.00318 0.251491
1012.88 1.47138e-08 1.00318 0.250999
1013.03 1.4975e-08 1.00322 0.259862
1013.04 1.49862e-08 1.00322 0.260072
1013.08 1.50359e-08 1.00323 0.266852
1013.33 1.51078e-08 1.00325 0.272592
1013.13 1.51187e-08 1.00323 0.269871
1012.92 1.49313e-08 1.00318 0.264642
1012.92 1.48538e-08 1.00318 0.262154
1012.89 1.47541e-08 1.00318 0.255738
1012.87 1.47061e-08 1.00318 0.25343
1013 1.49331e-08 1.00321 0.255549
1012.88 1.47108e-08 1.00318 0.247653
1012.95 1.49006e-08 1.0032 0.246721
1012.91 1.48402e-08 1.00319 0.24466
1012.86 1.45707e-08 1.00318 0.249569
1013.35 1.51304e-08 1.00325 0.273377
1013.13 1.51285e-08 1.00324 0.27048
1013.09 1.50539e-08 1.00323 0.268657
1013.02 1.49614e-08 1.00322 0.256271
1013.07 1.50169e-08 1.00322 0.263125
1013.03 1.49638e-08 1.00322 0.257031
1012.42 1.27828e-08 1.00309 0.273858
1013.32 1.50545e-08 1.00325 0.273315
1012.92 1.48735e-08 1.00319 0.256716
1013.14 1.51258e-08 1.00323 0.270903
1013.11 1.50778e-08 1.00323 0.266332
1013.08 1.50318e-08 1.00322 0.265032
1012.93 1.48471e-08 1.00319 0.253448
1012.91 1.48918e-08 1.00319 0.25222
1013 1.49318e-08 1.00321 0.255759
1012.96 1.4905e-08 1.0032 0.251839
1012.94 1.48927e-08 1.00319 0.250388
1013.32 1.50649e-08 1.00325 0.273874
1013.15 1.51474e-08 1.00324 0.271627
1013.04 1.49834e-08 1.00322 0.26035
1013.1 1.50572e-08 1.00323 0.268365
1013.07 1.50225e-08 1.00322 0.261858
1012.89 1.47838e-08 1.00318 0.25461
1012.93 1.4934e-08 1.00319 0.249939
1012.8 1.42007e-08 1.00318 0.249119
1012.98 1.49315e-08 1.00321 0.25025
1012.94 1.49125e-08 1.00319 0.247914
1013.14 1.51452e-08 1.00324 0.272604
1013.12 1.50813e-08 1.00323 0.269733
1013.03 1.49861e-08 1.00322 0.256269