# vtk DataFile Version 2.0
Wound Healing Simulation
ASCII
DATASET UNSTRUCTURED_GRID
POINTS 3012 float
69.9759 18.75 4
67.2507 60.3285 4
69.976 18.75 2
73.0099 25.446 4
71.1327 20.9142 4
68.6801 16.6661 4
67.8276 19.9228 3.98875
67.2507 60.3286 2
71.1327 54.0858 4
68.6801 58.3339 4
65.6939 62.2254 4
65.314 59.0055 3.99017
74.6784 42.3946 4
73.7221 47.2057 4
69.9759 18.75 0
73.0099 25.446 2
68.6801 16.6661 2
71.1327 20.9142 2
67.828 19.9233 2
74.6792 32.6053 4
73.7222 27.7943 4
72.1454 23.1494 4
70.6164 26.2219 3.98768
68.8881 21.9564 3.98839
67.2507 14.6715 4
66.639 17.9674 3.98947
65.8042 21.0186 3.98454
67.2507 60.3285 0
71.1327 54.0858 2
68.6801 58.3339 2
65.694 62.2255 2
65.3142 59.0055 2
72.1454 51.8506 4
69.9759 56.25 4
68.8391 53.1143 3.98835
64.0165 64.0165 4
66.6128 57.1376 3.98965
63.8873 60.77 3.99115
63.5059 57.7812 3.98566
60.3285 67.2507 4
74.6792 42.3947 2
73.7222 47.2057 2
74.9194 39.9526 4
74.2788 44.8158 4
72.1698 42.0851 3.98665
73.0099 49.554 4
71.2516 46.5969 3.98777
73.0099 25.446 0
71.1327 20.9142 0
68.6801 16.6661 0
67.8276 19.9228 0.01125
74.6792 32.6053 2
73.7222 27.7943 2
67.2508 14.6715 2
72.1455 23.1494 2
70.6166 26.2229 2
66.6393 17.9676 2
68.8884 21.9573 2
65.8044 21.0183 2
74.9197 35.0474 4
74.2794 30.1841 4
72.1863 32.9434 3.98684
71.2802 28.4323 3.98752
69.818 24.0596 3.98808
68.3533 26.9501 3.98154
66.7699 22.9287 3.98384
65.694 12.7746 4
65.3253 16.0986 3.99047
64.7202 19.1858 3.98536
63.8988 22.0243 3.98217
71.1327 54.0858 0
65.6939 62.2254 0
68.6801 58.3339 0
65.314 59.0055 0.00983455
72.1455 51.8506 2
69.9759 56.25 2
68.8394 53.1136 2
64.0165 64.0165 2
66.613 57.1375 2
63.8874 60.7699 2
63.506 57.7815 2
62.2254 65.694 4
58.8942 65.4167 3.99254
69.7717 50.9886 3.988
67.7862 55.1701 3.98906
66.6576 52.2133 3.98384
62.3372 62.4307 3.99192
64.6677 56.0397 3.98577
62.2068 59.4145 3.98588
61.8324 56.6951 3.98365
58.3339 68.6801 4
60.3285 67.2508 2
73.7221 47.2057 0
74.6784 42.3946 0
74.9197 39.9526 2
74.2794 44.8159 2
72.1697 42.0852 2
73.0099 49.554 2
71.2516 46.5963 2
75 37.5 4
72.4066 39.802 3.98581
71.7845 44.352 3.98739
69.8092 41.789 3.98018
70.5778 48.8124 3.98792
68.9189 46.0149 3.98107
74.6792 32.6053 0
73.7222 27.7943 0
67.2507 14.6715 0
72.1454 23.1494 0
70.6164 26.2219 0.0123223
68.8881 21.9564 0.011611
66.639 17.9674 0.0105264
65.8042 21.0186 0.0154646
74.9197 35.0474 2
74.2794 30.1841 2
72.1863 32.9435 2
71.2802 28.4331 2
65.694 12.7745 2
65.3255 16.0985 2
69.8183 24.0607 2
68.3532 26.9501 2
64.7205 19.1854 2
66.77 22.9284 2
63.899 22.024 2
72.4145 35.224 3.98583
71.8057 30.6768 3.98743
69.8451 33.2683 3.98039
68.9721 29.0376 3.98083
67.6184 24.9093 3.98279
66.2049 27.6305 3.97913
64.0165 10.9835 4
64.7686 23.8215 3.98155
63.8913 14.3229 3.9913
63.5184 17.4362 3.98617
62.9177 20.3069 3.98282
62.1086 22.9284 3.98101
60.6846 11.0945 3.99217
57.613 11.4389 3.98733
72.1454 51.8506 0
69.9759 56.25 0
68.8391 53.1143 0.0116513
64.0165 64.0165 0
63.8873 60.77 0.00884633
66.6128 57.1376 0.0103464
63.5059 57.7812 0.0143437
62.2255 65.694 2
58.8944 65.4168 2
69.7719 50.9877 2
67.7865 55.1697 2
66.6577 52.2136 2
62.3374 62.4308 2
64.6679 56.0401 2
62.2068 59.4148 2
61.8325 56.6954 2
60.6692 63.9799 3.99224
57.0247 66.7372 3.99291
57.5582 63.698 3.98744
67.5153 50.179 3.98275
65.7099 54.1795 3.98503
64.5509 51.3934 3.98113
60.7755 60.9472 3.98652
62.8316 55.0806 3.98395
60.6653 58.1735 3.98362
60.3402 55.803 3.98282
56.25 69.9759 4
58.3339 68.6801 2
60.3285 67.2507 0
58.9215 9.65294 3.99255
62.2254 9.30607 4
73.0099 49.554 0
74.2788 44.8158 0
71.2516 46.5969 0.0122283
72.1698 42.0851 0.0133466
74.9194 39.9526 0
75 37.5 2
72.4066 39.8022 2
71.7844 44.3518 2
69.8092 41.789 2
70.5778 48.8115 2
68.9188 46.0148 2
72.4899 37.5119 3.98533
70.0453 39.6568 3.97914
69.4364 43.9071 3.98075
67.6061 41.4982 3.97751
68.2733 48.1082 3.98182
66.7206 45.4422 3.97873
74.9197 35.0474 0
74.2794 30.1841 0
72.1863 32.9434 0.0131614
71.2802 28.4323 0.0124823
65.694 12.7746 0
65.3253 16.0986 0.00953433
69.818 24.0596 0.0119249
68.3533 26.9501 0.0184603
66.7699 22.9287 0.0161648
64.7202 19.1858 0.0146443
63.8988 22.0243 0.0178316
72.4145 35.2242 2
71.8057 30.6772 2
69.845 33.2684 2
68.972 29.0378 2
64.0165 10.9835 2
63.8915 14.3229 2
63.5186 17.4358 2
67.6184 24.9091 2
66.2048 27.6302 2
62.918 20.3065 2
64.7687 23.8211 2
62.1088 22.9282 2
60.6847 11.0945 2
57.6129 11.4384 2
70.0621 35.3918 3.97961
69.4728 31.1493 3.98074
67.664 33.5893 3.97768
66.7819 29.6198 3.9783
65.5355 25.6931 3.98038
64.1602 28.2482 3.97835
62.3426 12.6515 3.99181
62.8731 24.6249 3.98063
62.2023 15.7742 3.98641
61.8224 18.6698 3.98385
61.2319 21.3246 3.98116
60.4449 23.7096 3.98078
59.2475 12.7697 3.98666
55.8746 10.2257 3.98847
56.4067 13.1012 3.98442
69.7717 50.9886 0.0119967
62.2254 65.694 0
58.8942 65.4167 0.00746129
67.7862 55.1701 0.0109431
66.6576 52.2133 0.0161643
62.3372 62.4307 0.00808172
62.2068 59.4145 0.0141164
64.6677 56.0397 0.0142264
61.8324 56.6951 0.0163513
60.6694 63.9799 2
57.0249 66.7373 2
57.5582 63.6985 2
67.5153 50.1792 2
65.7101 54.1799 2
64.551 51.3938 2
60.7756 60.9477 2
62.8318 55.081 2
60.6653 58.1739 2
60.3404 55.8033 2
55.0701 67.934 3.99324
59.2206 62.3741 3.98684
55.8042 64.915 3.98832
56.3284 62.0988 3.9846
65.3446 49.414 3.98008
63.719 53.303 3.98268
62.4597 50.6636 3.97977
59.3378 59.5697 3.98444
61.0921 54.3253 3.98315
59.2984 57.0297 3.98206
59.2563 55.2021 3.98305
48.1023 68.5819 3.99009
50.948 69.9333 3.99375
54.0858 71.1327 4
56.25 69.976 2
58.3339 68.6801 0
57.0585 8.3329 3.99304
60.3285 7.74928 4
58.9216 9.65286 2
62.2255 9.30602 2
70.5778 48.8124 0.0120782
71.7845 44.352 0.0126129
68.9189 46.0149 0.0189349
69.8092 41.789 0.0198189
72.4066 39.802 0.0141935
75 37.5 0
72.4898 37.5122 2
70.0453 39.6567 2
69.4363 43.907 2
67.606 41.4983 2
68.2732 48.1082 2
66.7205 45.4424 2
70.133 37.5212 3.97875
67.8416 39.5123 3.97649
67.2335 43.4713 3.97823
65.568 41.2118 3.97672
66.0806 47.4218 3.9794
64.6668 44.8531 3.97791
72.4145 35.224 0.0141656
71.8057 30.6768 0.01257
69.8451 33.2683 0.0196109
68.9721 29.0376 0.0191683
64.0165 10.9835 0
63.8913 14.3229 0.00870279
63.5184 17.4362 0.0138305
67.6184 24.9093 0.0172069
66.2049 27.6305 0.0208726
64.7686 23.8215 0.0184483
62.9177 20.3069 0.0171821
62.1086 22.9284 0.0189923
60.6846 11.0945 0.00782989
57.613 11.4389 0.0126736
70.0622 35.3919 2
69.4727 31.1495 2
67.664 33.5892 2
66.7817 29.6196 2
62.3427 12.6514 2
62.2024 15.7737 2
61.8226 18.6694 2
65.5355 25.6928 2
64.1601 28.248 2
61.2322 21.3244 2
62.8731 24.6246 2
60.445 23.7095 2
59.2475 12.7693 2
56.4067 13.1007 2
55.8746 10.2252 2
67.878 35.5466 3.97706
67.2747 31.6201 3.97824
65.7094 33.9243 3.97668
64.676 30.1865 3.97718
63.5535 26.4045 3.97943
62.2745 28.7675 3.97879
60.7772 14.2138 3.98642
61.0649 25.3222 3.98049
60.6184 17.1134 3.98456
60.2339 19.7983 3.98238
59.6784 22.2388 3.98
59.0001 24.3002 3.98116
54.0375 9.12925 3.98924
57.9126 14.3192 3.98451
54.7876 12.0007 3.9851
55.3148 14.6317 3.98328
67.5153 50.179 0.0172532
57.0247 66.7372 0.00708905
60.6692 63.9799 0.00775607
57.5582 63.698 0.0125604
65.7099 54.1795 0.0149675
64.5509 51.3934 0.0188697
60.7755 60.9472 0.013477
60.6653 58.1735 0.0163829
62.8316 55.0806 0.0160505
60.3402 55.803 0.0171795
55.0703 67.9341 2
59.2206 62.3747 2
55.8042 64.9154 2
56.3284 62.0992 2
65.3446 49.4144 2
63.7192 53.3035 2
62.4598 50.664 2
59.3379 59.5703 2
61.0923 54.3256 2
59.2986 57.03 2
59.2565 55.2023 2
53.042 69.0016 3.99353
53.9662 66.0169 3.989
57.8835 60.8809 3.98456
54.6841 63.2142 3.98523
55.214 60.6265 3.9833
63.2116 48.6701 3.97893
61.7589 52.5894 3.98149
60.2959 50.0341 3.97905
58.0244 58.2762 3.98295
59.3443 53.9659 3.98237
58.1383 55.8322 3.98056
50.1088 67.8599 3.98983
47.4626 66.5861 3.98772
46.0562 69.1614 3.99033
48.1024 68.5823 2
48.8023 70.7244 3.99396
50.9482 69.9334 2
51.8506 72.1454 4
54.0858 71.1327 2
56.25 69.9759 0
55.1028 7.13754 3.99337
58.3339 6.31992 4
57.0587 8.33277 2
60.3286 7.74926 2
58.9215 9.65294 0.00745146
62.2254 9.30607 0
68.2733 48.1082 0.0181808
69.4364 43.9071 0.0192497
66.7206 45.4422 0.0212699
67.6061 41.4982 0.0224851
70.0453 39.6568 0.0208551
72.4899 37.5119 0.0146657
70.133 37.5212 2
67.8416 39.5123 2
67.2334 43.4714 2
65.568 41.212 2
66.0806 47.4221 2
64.6667 44.8533 2
67.9373 37.5215 3.97586
65.7979 39.3709 3.97579
65.1894 43.0286 3.97734
63.7709 40.9329 3.97666
63.9816 46.7233 3.9784
62.8252 44.2231 3.97851
70.0621 35.3918 0.0203902
69.4728 31.1493 0.0192616
67.664 33.5893 0.0223155
66.7819 29.6198 0.0216987
62.3426 12.6515 0.00818939
62.2023 15.7742 0.0135945
61.8224 18.6698 0.0161466
65.5355 25.6931 0.019615
64.1602 28.2482 0.0216514
62.8731 24.6249 0.0193748
61.2319 21.3246 0.018838
60.4449 23.7096 0.0192206
59.2475 12.7697 0.0133406
56.4067 13.1012 0.0155825
55.8746 10.2257 0.0115348
67.878 35.5464 2
67.2745 31.6199 2
65.7094 33.924 2
64.6757 30.1862 2
60.7772 14.2133 2
60.6186 17.1129 2
60.2343 19.798 2
63.5534 26.4042 2
62.2743 28.7673 2
59.6786 22.2387 2
61.0649 25.322 2
59.0002 24.3003 2
57.9126 14.3188 2
55.3148 14.6313 2
54.0375 9.12876 2
54.7876 12.0001 2
65.887 35.6651 3.97613
65.199 32.1498 3.97704
64.2983 34.2463 3.97629
62.6114 30.6274 3.97713
61.6701 27.0594 3.97914
60.8703 29.1279 3.98062
59.314 15.6557 3.98464
59.3541 25.7783 3.98178
59.131 18.3384 3.98364
58.7538 20.8336 3.98084
58.3044 23.0709 3.97897
57.9915 24.6438 3.98195
52.1122 8.14803 3.98973
53.0582 11.0072 3.98609
56.6795 15.7274 3.98375
53.811 13.6672 3.98331
54.3791 15.9826 3.98315
55.0701 67.934 0.00676222
65.3446 49.414 0.0199197
55.8042 64.915 0.011677
59.2206 62.3741 0.013164
56.3284 62.0988 0.0153981
63.719 53.303 0.0173198
62.4597 50.6636 0.0202343
59.3378 59.5697 0.0155625
59.2984 57.0297 0.0179383
61.0921 54.3253 0.0168509
59.2563 55.2021 0.0169455
53.0422 69.0018 2
53.9662 66.0172 2
57.8835 60.8814 2
54.6841 63.2146 2
55.214 60.627 2
63.2116 48.6705 2
61.7591 52.5898 2
60.2959 50.0344 2
58.0246 58.2767 2
59.3445 53.9662 2
58.1385 55.8324 2
52.0697 67.0031 3.9895
52.9529 64.2242 3.98601
56.6524 59.5015 3.98354
[...]
POINT_DATA 3012
SCALARS Jp_lamdaP float 4
LOOKUP_TABLE default
1 1 1 1
1 1 1 1
1 1 1 1
1 1 1 1
1 1 1 1
1 1 1 1
0.999961 1 1 0.999961
1 1 1 1
1 1 1 1
1 1 1 1
1 1 1 1
0.999997 1 1 0.999997
0.999999 1 1 0.999999
1 1 1 1
1 1 1 1
1 1 1 1
1 1 1 1
1 1 1 1
0.999961 1 1 0.999961
1 1 1 1
1 1 1 1
1 1 1 1
0.999925 1 1 0.999925
0.999951 1 1 0.999951
1 1 1 1
0.999971 1 1 0.999971
0.99987 1 1 0.99987
1 1 1 1
1 1 1 1
1 1 1 1
1 1 1 1
0.999998 1 1 0.999998
1 1 1 1
1 1 1 1
0.999975 1 1 0.999975
1 1 1 1
0.999993 1 1 0.999993
0.999999 1 1 0.999999
0.999893 1 1 0.999893
1 1 1 1
1 1 1 1
1 1 1 1
1 1 1 1
1 1 1 1
0.99994 1 1 0.99994
1 1 1 1
0.999957 1 1 0.999957
1 1 1 1
1 1 1 1
1 1 1 1
0.999961 1 1 0.999961
1 1 1 1
1 1 1 1
1 1 1 1
1 1 1 1
0.999926 1 1 0.999926
0.999972 1 1 0.999972
0.999951 1 1 0.999951
0.999866 1 1 0.999866
1 1 1 1
1 1 1 1
0.999945 1 1 0.999945
0.999916 1 1 0.999916
0.999939 1 1 0.999939
0.999782 1 1 0.999782
0.999833 1 1 0.999833
1 1 1 1
0.999981 1 1 0.999981
0.999894 1 1 0.999894
0.999733 1 1 0.999733
1 1 1 1
1 1 1 1
1 1 1 1
0.999999 1 1 0.999999
1 1 1 1
1 1 1 1
0.999978 1 1 0.999978
1 1 1 1
0.999994 1 1 0.999994
1 1 1 1
0.999893 1 1 0.999893
1 1 1 1
1 1 1 1
0.999967 1 1 0.999967
0.999985 1 1 0.999985
0.999821 1 1 0.999821
1 1 1 1
0.999881 1 1 0.999881
0.999906 1 1 0.999906
0.999789 1 1 0.999789
1 1 1 1
1 1 1 1
1 1 1 1
1 1 1 1
1 1 1 1
1 1 1 1
0.999943 1 1 0.999943
1 1 1 1
0.999958 1 1 0.999958
1 1 1 1
0.999932 1 1 0.999932
0.99995 1 1 0.99995
0.999709 1 1 0.999709
0.999962 1 1 0.999962
0.999743 1 1 0.999743
1 1 1 1
1 1 1 1
1 1 1 1
1 1 1 1
0.999927 1 1 0.999927
0.999952 1 1 0.999952
0.999972 1 1 0.999972
0.999863 1 1 0.999863
1 1 1 1
1 1 1 1
0.999926 1 1 0.999926
0.999916 1 1 0.999916
1 1 1 1
0.99999 1 1 0.99999
0.99994 1 1 0.99994
0.999774 1 1 0.999774
0.99989 1 1 0.99989
0.999839 1 1 0.999839
0.999734 1 1 0.999734
0.999937 1 1 0.999937
0.999914 1 1 0.999914
0.99973 1 1 0.99973
0.999748 1 1 0.999748
0.999801 1 1 0.999801
0.999652 1 1 0.999652
1 1 1 1
0.999717 1 1 0.999717
1 1 1 1
0.999899 1 1 0.999899
0.999751 1 1 0.999751
0.99968 1 1 0.99968
1 1 1 1
0.999929 1 1 0.999929
1 1 1 1
1 1 1 1
0.999981 1 1 0.999981
1 1 1 1
1 1 1 1
0.999995 1 1 0.999995
0.999892 1 1 0.999892
1 1 1 1
1 1 1 1
0.999969 1 1 0.999969
0.999987 1 1 0.999987
0.999822 1 1 0.999822
1 1 1 1
0.999881 1 1 0.999881
0.999906 1 1 0.999906
0.999786 1 1 0.999786
1 1 1 1
1 1 1 1
0.999937 1 1 0.999937
0.999789 1 1 0.999789
0.999856 1 1 0.999856
0.999707 1 1 0.999707
0.999921 1 1 0.999921
0.999775 1 1 0.999775
0.999796 1 1 0.999796
0.999743 1 1 0.999743
1 1 1 1
1 1 1 1
1 1 1 1
1 1 1 1
1 1 1 1
1 1 1 1
1 1 1 1
0.99996 1 1 0.99996
0.999944 1 1 0.999944
1 1 1 1
1 1 1 1
0.999933 1 1 0.999933
0.999952 1 1 0.999952
0.999709 1 1 0.999709
0.999963 1 1 0.999963
0.999743 1 1 0.999743
0.99993 1 1 0.99993
0.999693 1 1 0.999693
0.999727 1 1 0.999727
0.999601 1 1 0.999601
0.999763 1 1 0.999763
0.999637 1 1 0.999637
1 1 1 1
1 1 1 1
0.999907 1 1 0.999907
0.999917 1 1 0.999917
1 1 1 1
0.999999 1 1 0.999999
0.99994 1 1 0.99994
0.999765 1 1 0.999765
0.999845 1 1 0.999845
0.999887 1 1 0.999887
0.999734 1 1 0.999734
0.999936 1 1 0.999936
0.999914 1 1 0.999914
0.999712 1 1 0.999712
0.999754 1 1 0.999754
1 1 1 1
1 1 1 1
0.999906 1 1 0.999906
0.999802 1 1 0.999802
0.999642 1 1 0.999642
0.999748 1 1 0.999748
0.999722 1 1 0.999722
0.999681 1 1 0.999681
1 1 1 1
0.999929 1 1 0.999929
0.999698 1 1 0.999698
0.999738 1 1 0.999738
0.999611 1 1 0.999611
0.999608 1 1 0.999608
0.999696 1 1 0.999696
0.999602 1 1 0.999602
1 1 1 1
0.999668 1 1 0.999668
0.999911 1 1 0.999911
0.999773 1 1 0.999773
0.999695 1 1 0.999695
0.999666 1 1 0.999666
0.999921 1 1 0.999921
0.999946 1 1 0.999946
0.999798 1 1 0.999798
0.999971 1 1 0.999971
1 1 1 1
1 1 1 1
0.99999 1 1 0.99999
0.999822 1 1 0.999822
1 1 1 1
0.999907 1 1 0.999907
0.999881 1 1 0.999881
0.999782 1 1 0.999782
1 1 1 1
1 1 1 1
0.999937 1 1 0.999937
0.999789 1 1 0.999789
0.999857 1 1 0.999857
0.999707 1 1 0.999707
0.999922 1 1 0.999922
0.999779 1 1 0.999779
0.999795 1 1 0.999795
0.999738 1 1 0.999738
1 1 1 1
0.99993 1 1 0.99993
0.999948 1 1 0.999948
0.999815 1 1 0.999815
0.999676 1 1 0.999676
0.999749 1 1 0.999749
0.99965 1 1 0.99965
0.999808 1 1 0.999808
0.999729 1 1 0.999729
0.999727 1 1 0.999727
0.999704 1 1 0.999704
0.999982 1 1 0.999982
1 1 1 1
1 1 1 1
1 1 1 1
1 1 1 1
1 1 1 1
1 1 1 1
1 1 1 1
1 1 1 1
0.999965 1 1 0.999965
0.999954 1 1 0.999954
0.999744 1 1 0.999744
0.999709 1 1 0.999709
0.999934 1 1 0.999934
1 1 1 1
0.99993 1 1 0.99993
0.999693 1 1 0.999693
0.999727 1 1 0.999727
0.999601 1 1 0.999601
0.999763 1 1 0.999763
0.999637 1 1 0.999637
0.99969 1 1 0.99969
0.999586 1 1 0.999586
0.999618 1 1 0.999618
0.999567 1 1 0.999567
0.999656 1 1 0.999656
0.9996 1 1 0.9996
0.999934 1 1 0.999934
0.999914 1 1 0.999914
0.999695 1 1 0.999695
0.99976 1 1 0.99976
1 1 1 1
1 1 1 1
0.999912 1 1 0.999912
0.999803 1 1 0.999803
0.999632 1 1 0.999632
0.999726 1 1 0.999726
0.999746 1 1 0.999746
0.999682 1 1 0.999682
1 1 1 1
0.99993 1 1 0.99993
0.999692 1 1 0.999692
0.999738 1 1 0.999738
0.999608 1 1 0.999608
0.999619 1 1 0.999619
1 1 1 1
0.999911 1 1 0.999911
0.99978 1 1 0.99978
0.999696 1 1 0.999696
0.9996 1 1 0.9996
0.999687 1 1 0.999687
0.999668 1 1 0.999668
0.999665 1 1 0.999665
0.999921 1 1 0.999921
0.999795 1 1 0.999795
0.999945 1 1 0.999945
0.999604 1 1 0.999604
0.99961 1 1 0.99961
0.999556 1 1 0.999556
0.999567 1 1 0.999567
0.999646 1 1 0.999646
0.999603 1 1 0.999603
0.999917 1 1 0.999917
0.99966 1 1 0.99966
0.999804 1 1 0.999804
0.999707 1 1 0.999707
0.99965 1 1 0.99965
0.999683 1 1 0.999683
0.999965 1 1 0.999965
0.999804 1 1 0.999804
0.999789 1 1 0.999789
0.999743 1 1 0.999743
0.999789 1 1 0.999789
1 1 1 1
1 1 1 1
0.999937 1 1 0.999937
0.999858 1 1 0.999858
0.999707 1 1 0.999707
0.999922 1 1 0.999922
0.999794 1 1 0.999794
0.999782 1 1 0.999782
0.999733 1 1 0.999733
1 1 1 1
0.99993 1 1 0.99993
0.999948 1 1 0.999948
0.999815 1 1 0.999815
0.999676 1 1 0.999676
0.999749 1 1 0.999749
0.99965 1 1 0.99965
0.999808 1 1 0.999808
0.999734 1 1 0.999734
0.999726 1 1 0.999726
0.999714 1 1 0.999714
1 1 1 1
0.999959 1 1 0.999959
0.999814 1 1 0.999814
0.999821 1 1 0.999821
0.999742 1 1 0.999742
0.999628 1 1 0.999628
0.999694 1 1 0.999694
0.999629 1 1 0.999629
0.999734 1 1 0.999734
0.999699 1 1 0.999699
0.999658 1 1 0.999658
0.999976 1 1 0.999976
0.999873 1 1 0.999873
0.999987 1 1 0.999987
0.999983 1 1 0.999983
1 1 1 1
1 1 1 1
1 1 1 1
1 1 1 1
1 1 1 1
1 1 1 1
1 1 1 1
1 1 1 1
1 1 1 1
1 1 1 1
1 1 1 1
0.999763 1 1 0.999763
0.999727 1 1 0.999727
0.999637 1 1 0.999637
0.9996 1 1 0.9996
0.999693 1 1 0.999693
0.999929 1 1 0.999929
0.99969 1 1 0.99969
0.999586 1 1 0.999586
0.999618 1 1 0.999618
0.999566 1 1 0.999566
0.999656 1 1 0.999656
0.9996 1 1 0.9996
0.999582 1 1 0.999582
0.999557 1 1 0.999557
0.999579 1 1 0.999579
0.999559 1 1 0.999559
0.999617 1 1 0.999617
0.999614 1 1 0.999614
0.999685 1 1 0.999685
0.999738 1 1 0.999738
0.999605 1 1 0.999605
0.99963 1 1 0.99963
1 1 1 1
0.999911 1 1 0.999911
0.999787 1 1 0.999787
0.999697 1 1 0.999697
0.999597 1 1 0.999597
0.999668 1 1 0.999668
0.99968 1 1 0.99968
0.999665 1 1 0.999665
0.999922 1 1 0.999922
0.999791 1 1 0.999791
0.999945 1 1 0.999945
0.999596 1 1 0.999596
0.999609 1 1 0.999609
0.99955 1 1 0.99955
0.999569 1 1 0.999569
0.999918 1 1 0.999918
0.999804 1 1 0.999804
0.999714 1 1 0.999714
0.999648 1 1 0.999648
0.999607 1 1 0.999607
0.999644 1 1 0.999644
0.999661 1 1 0.999661
0.999686 1 1 0.999686
0.999805 1 1 0.999805
0.999737 1 1 0.999737
0.999963 1 1 0.999963
0.999791 1 1 0.999791
0.999546 1 1 0.999546
0.999551 1 1 0.999551
0.999523 1 1 0.999523
0.999563 1 1 0.999563
0.999648 1 1 0.999648
0.999625 1 1 0.999625
0.999809 1 1 0.999809
0.999693 1 1 0.999693
0.999739 1 1 0.999739
0.999656 1 1 0.999656
0.999622 1 1 0.999622
0.999689 1 1 0.999689
0.999976 1 1 0.999976
0.999806 1 1 0.999806
0.999749 1 1 0.999749
0.99972 1 1 0.99972
0.999713 1 1 0.999713
1 1 1 1
0.999675 1 1 0.999675
0.999948 1 1 0.999948
0.99993 1 1 0.99993
0.999814 1 1 0.999814
0.99975 1 1 0.99975
0.99965 1 1 0.99965
0.999808 1 1 0.999808
0.999724 1 1 0.999724
0.999739 1 1 0.999739
0.999724 1 1 0.999724
1 1 1 1
0.99996 1 1 0.99996
0.999814 1 1 0.999814
0.999821 1 1 0.999821
0.99974 1 1 0.99974
0.999627 1 1 0.999627
0.999695 1 1 0.999695
0.999627 1 1 0.999627
0.999735 1 1 0.999735
0.999703 1 1 0.999703
0.999664 1 1 0.999664
0.999969 1 1 0.999969
0.999831 1 1 0.999831
0.99974 1 1 0.99974
0.999742 1 1 0.999742
0.999709 1 1 0.999709
0.999618 1 1 0.999618
0.999667 1 1 0.999667
0.999647 1 1 0.999647
0.999671 1 1 0.999671
0.999625 1 1 0.999625
0.999978 1 1 0.999978
0.999843 1 1 0.999843
0.999866 1 1 0.999866
0.999791 1 1 0.999791
0.999882 1 1 0.999882
0.99999 1 1 0.99999
0.999988 1 1 0.999988
1 1 1 1
0.999985 1 1 0.999985
1 1 1 1
1 1 1 1
1 1 1 1
1 1 1 1
1 1 1 1
1 1 1 1
1 1 1 1
1 1 1 1
1 1 1 1
1 1 1 1
1 1 1 1
0.999656 1 1 0.999656
0.999618 1 1 0.999618
0.9996 1 1 0.9996
0.999565 1 1 0.999565
0.999586 1 1 0.999586
0.99969 1 1 0.99969
0.999582 1 1 0.999582
0.999555 1 1 0.999555
0.999579 1 1 0.999579
0.999557 1 1 0.999557
0.999616 1 1 0.999616
0.999614 1 1 0.999614
0.999548 1 1 0.999548
0.99955 1 1 0.99955
0.999577 1 1 0.999577
0.99955 1 1 0.99955
0.999622 1 1 0.999622
0.999633 1 1 0.999633
0.999589 1 1 0.999589
0.999609 1 1 0.999609
0.999545 1 1 0.999545
0.999572 1 1 0.999572
0.999918 1 1 0.999918
0.999803 1 1 0.999803
0.999721 1 1 0.999721
0.999651 1 1 0.999651
0.999611 1 1 0.999611
0.999661 1 1 0.999661
0.999637 1 1 0.999637
0.99969 1 1 0.99969
0.999806 1 1 0.999806
0.99973 1 1 0.99973
0.999962 1 1 0.999962
0.999793 1 1 0.999793
0.999547 1 1 0.999547
0.999552 1 1 0.999552
0.999521 1 1 0.999521
0.999564 1 1 0.999564
0.99981 1 1 0.99981
0.999745 1 1 0.999745
0.999655 1 1 0.999655
0.999645 1 1 0.999645
0.999637 1 1 0.999637
0.999619 1 1 0.999619
0.999693 1 1 0.999693
0.9997 1 1 0.9997
0.999749 1 1 0.999749
0.999711 1 1 0.999711
0.999719 1 1 0.999719
0.999965 1 1 0.999965
0.999809 1 1 0.999809
0.999525 1 1 0.999525
0.999511 1 1 0.999511
0.999584 1 1 0.999584
0.999672 1 1 0.999672
0.999758 1 1 0.999758
0.99973 1 1 0.99973
0.999695 1 1 0.999695
0.999592 1 1 0.999592
0.999601 1 1 0.999601
0.999965 1 1 0.999965
0.999847 1 1 0.999847
0.999729 1 1 0.999729
0.999725 1 1 0.999725
0.999667 1 1 0.999667
0.999688 1 1 0.999688
1 1 1 1
0.99996 1 1 0.99996
0.999626 1 1 0.999626
0.99982 1 1 0.99982
0.999814 1 1 0.999814
0.999738 1 1 0.999738
0.999695 1 1 0.999695
0.999625 1 1 0.999625
0.999735 1 1 0.999735
0.999669 1 1 0.999669
0.999706 1 1 0.999706
0.99997 1 1 0.99997
0.99983 1 1 0.99983
0.999744 1 1 0.999744
0.999741 1 1 0.999741
0.999705 1 1 0.999705
0.999617 1 1 0.999617
0.999665 1 1 0.999665
0.999649 1 1 0.999649
0.999667 1 1 0.999667
0.999616 1 1 0.999616
0.999842 1 1 0.999842
0.999733 1 1 0.999733
0.999693 1 1 0.999693
0.999689 1 1 0.999689
0.999678 1 1 0.999678
0.999684 1 1 0.999684
0.999615 1 1 0.999615
0.999633 1 1 0.999633
0.999622 1 1 0.999622
0.999541 1 1 0.999541
0.999979 1 1 0.999979
0.999849 1 1 0.999849
0.999753 1 1 0.999753
0.999858 1 1 0.999858
0.999882 1 1 0.999882
0.99978 1 1 0.99978
0.99972 1 1 0.99972
0.999776 1 1 0.999776
0.999889 1 1 0.999889
0.999992 1 1 0.999992
0.999991 1 1 0.999991
1 1 1 1
0.999989 1 1 0.999989
1 1 1 1
1 1 1 1
1 1 1 1
1 1 1 1
1 1 1 1
1 1 1 1
1 1 1 1
1 1 1 1
1 1 1 1
1 1 1 1
1 1 1 1
0.999616 1 1 0.999616
0.99958 1 1 0.99958
0.999615 1 1 0.999615
0.999556 1 1 0.999556
0.999554 1 1 0.999554
0.999582 1 1 0.999582
0.999547 1 1 0.999547
0.999551 1 1 0.999551
0.999573 1 1 0.999573
0.999544 1 1 0.999544
0.999622 1 1 0.999622
0.999643 1 1 0.999643
0.999549 1 1 0.999549
0.999551 1 1 0.999551
0.999576 1 1 0.999576
0.999684 1 1 0.999684
0.999548 1 1 0.999548
0.999554 1 1 0.999554
0.999518 1 1 0.999518
0.999565 1 1 0.999565
0.99981 1 1 0.99981
0.99975 1 1 0.99975
0.999654 1 1 0.999654
0.999642 1 1 0.999642
0.99965 1 1 0.99965
0.999694 1 1 0.999694
0.999616 1 1 0.999616
0.999711 1 1 0.999711
0.99975 1 1 0.99975
0.999708 1 1 0.999708
0.999717 1 1 0.999717
0.999954 1 1 0.999954
0.999812 1 1 0.999812
0.999522 1 1 0.999522
0.999516 1 1 0.999516
0.999589 1 1 0.999589
0.999757 1 1 0.999757
0.999703 1 1 0.999703
0.99959 1 1 0.99959
0.999667 1 1 0.999667
0.999616 1 1 0.999616
0.999727 1 1 0.999727
0.999965 1 1 0.999965
0.999725 1 1 0.999725
0.999693 1 1 0.999693
0.999669 1 1 0.999669
0.999732 1 1 0.999732
0.999838 1 1 0.999838
0.999516 1 1 0.999516
0.999508 1 1 0.999508
0.999627 1 1 0.999627
0.999724 1 1 0.999724
0.999725 1 1 0.999725
0.999655 1 1 0.999655
0.999625 1 1 0.999625
0.999542 1 1 0.999542
0.999974 1 1 0.999974
0.999868 1 1 0.999868
0.999756 1 1 0.999756
0.999648 1 1 0.999648
0.999694 1 1 0.999694
0.999648 1 1 0.999648
0.999971 1 1 0.999971
0.99983 1 1 0.99983
0.999615 1 1 0.999615
0.99974 1 1 0.99974
0.999749 1 1 0.999749
0.9997 1 1 0.9997
0.999663 1 1 0.999663
0.999652 1 1 0.999652
0.999663 1 1 0.999663
0.999608 1 1 0.999608
0.999842 1 1 0.999842
0.999737 1 1 0.999737
0.999699 1 1 0.999699
0.999694 1 1 0.999694
0.999682 1 1 0.999682
0.999688 1 1 0.999688
0.999618 1 1 0.999618
0.999653 1 1 0.999653
0.999617 1 1 0.999617
0.999533 1 1 0.999533
0.999741 1 1 0.999741
0.999668 1 1 0.999668
0.999648 1 1 0.999648
0.99965 1 1 0.99965
0.99969 1 1 0.99969
0.999688 1 1 0.999688
0.999536 1 1 0.999536
0.999947 1 1.00044 0.999511
0.999855 1 1 0.999855
0.999759 1 1 0.999759
0.999701 1 1 0.999701
0.999882 1 1 0.999882
0.999768 1 1 0.999768
0.999889 1 1 0.999889
0.999711 1 1 0.999711
0.999781 1 1 0.999781
0.999665 1 1 0.999665
0.999708 1 1 0.999708
0.999782 1 1 0.999782
0.999893 1 1 0.999893
0.999993 1 1 0.999993
0.999992 1 1 0.999992
1 1 1 1
0.999991 1 1 0.999991
1 1 1 1
1 1 1 1
1 1 1 1
1 1 1 1
1 1 1 1
1 1 1 1
1 1 1 1
1 1 1 1
1 1 1 1
1 1 1 1
1 1 1 1
0.999622 1 1 0.999622
0.99957 1 1 0.99957
0.999653 1 1 0.999653
0.999537 1 1 0.999537
0.999552 1 1 0.999552
0.999546 1 1 0.999546
0.999547 1 1 0.999547
0.99955 1 1 0.99955
0.999582 1 1 0.999582
0.99968 1 1 0.99968
0.99955 1 1 0.99955
0.999567 1 1 0.999567
0.999633 1 1 0.999633
0.99952 1 1 0.99952
0.999521 1 1 0.999521
0.999594 1 1 0.999594
0.999757 1 1 0.999757
0.999711 1 1 0.999711
0.999588 1 1 0.999588
0.999662 1 1 0.999662
0.999724 1 1 0.999724
0.999631 1 1 0.999631
0.999724 1 1 0.999724
0.999698 1 1 0.999698
0.999671 1 1 0.999671
0.999966 1 1 0.999966
0.999736 1 1 0.999736
0.999829 1 1 0.999829
0.999522 1 1 0.999522
0.999506 1 1 0.999506
0.999618 1 1 0.999618
0.999724 1 1 0.999724
0.999635 1 1 0.999635
0.999548 1 1 0.999548
0.99973 1 1 0.99973
0.999654 1 1 0.999654
0.999982 1 1 0.999982
0.999868 1 1 0.999868
0.999694 1 1 0.999694
0.99965 1 1 0.99965
0.999653 1 1 0.999653
0.999749 1 1 0.999749
0.999536 1 1 0.999536
0.999524 1 1 0.999524
0.999634 1 0.999915 0.999719
0.999739 1 1 0.999739
0.999677 1 1 0.999677
1.00018 1 1.00066 0.999526
0.999571 1 1 0.999571
0.999997 1 1 0.999997
0.999914 1 1 0.999914
0.999873 1 1 0.999873
0.99976 1 1 0.99976
0.999668 1 1 0.999668
0.999603 1 1 0.999603
0.999671 1 1 0.999671
0.999619 1 1 0.999619
0.999842 1 1 0.999842
0.99974 1 1 0.99974
0.999692 1 1 0.999692
0.999698 1 1 0.999698
0.999706 1 1 0.999706
0.999686 1 1 0.999686
0.999621 1 1 0.999621
0.999674 1 1 0.999674
0.999611 1 1 0.999611
0.999525 1 1 0.999525
0.999739 1 1 0.999739
0.999674 1 1 0.999674
0.999654 1 1 0.999654
0.999655 1 1 0.999655
0.999691 1 1 0.999691
0.999684 1 1 0.999684
0.999546 1 1 0.999546
0.99977 1 1.00026 0.999507
0.999686 1 1 0.999686
0.999631 1 1 0.999631
0.999631 1 1 0.999631
0.999595 1 1 0.999595
0.99955 1.00002 0.999824 0.999709
0.999518 1 1 0.999518
1.00023 1 1.00077 0.999462
0.999765 1 1 0.999765
0.999701 1 1 0.999701
0.999654 1 1 0.999654
0.999889 1 1 0.999889
0.999785 1 1 0.999785
0.999703 1 1 0.999703
0.999893 1 1 0.999893
0.999782 1 1 0.999782
0.999659 1 1 0.999659
0.999717 1 1 0.999717
0.999626 1 1 0.999626
0.999652 1 1 0.999652
0.999723 1 1 0.999723
0.999794 1 1 0.999794
0.999894 1 1 0.999894
0.999992 1 1 0.999992
0.999993 1 1 0.999993
1 1 1 1
0.999993 1 1 0.999993
1 1 1 1
1 1 1 1
1 1 1 1
1 1 1 1
1 1 1 1
0.999999 1 1 0.999999
1 1 1 1
1 1 1 1
1 1 1 1
1 1 1 1
1 1 1 1
1 1 1 1
0.999676 1 1 0.999676
0.999587 1 1 0.999587
0.99955 1 1 0.99955
0.999545 1 1 0.999545
0.999555 1 1 0.999555
0.99956 1 1 0.99956
0.999646 1 1 0.999646
0.999569 1 1 0.999569
0.999583 1 1 0.999583
0.999662 1 1 0.999662
0.999527 1 1 0.999527
0.999504 1 1 0.999504
0.99961 1 1 0.99961
0.999723 1 1 0.999723
0.999644 1 1 0.999644
0.999553 1 1 0.999553
0.999736 1 1 0.999736
0.999652 1 1 0.999652
0.999694 1 1 0.999694
0.999652 1 1 0.999652
0.999658 1 1 0.999658
0.99999 1 1 0.99999
0.999869 1 1 0.999869
0.999743 1 1 0.999743
0.999534 1 1 0.999534
0.999995 1 1 0.999995
0.999908 1 1 0.999908
0.999526 1 1 0.999526
0.999702 1 1 0.999702
0.999682 1 1 0.999682
0.999593 1 1.00003 0.99956
0.999782 1 1.00025 0.99953
0.999736 1 1 0.999736
0.999889 1 1 0.999889
0.999759 1 1 0.999759
0.999672 1 1 0.999672
0.99963 1 1 0.99963
0.999594 1 1 0.999594
0.99967 1 1 0.99967
0.999529 1 1 0.999529
0.999607 1 1 0.999607
0.999414 1 0.999601 0.999814
0.999606 1 1 0.999606
0.999643 1 1 0.999643
1.00096 1 1.00147 0.999488
0.999913 1 1 0.999913
0.999903 1 1 0.999903
0.999831 1 1 0.999831
0.999765 1 1 0.999765
0.999689 1 1 0.999689
0.999599 1 1 0.999599
0.999552 1 1 0.999552
0.99963 1 1 0.99963
0.999737 1 1 0.999737
0.999681 1 1 0.999681
0.999693 1 1 0.999693
0.99968 1 1 0.99968
0.999659 1 1 0.999659
0.99966 1 1 0.99966
0.999556 1 1 0.999556
0.999629 1 1.00013 0.999504
0.999686 1 1 0.999686
0.999648 1 1 0.999648
0.999631 1 1 0.999631
0.999641 1 1.00006 0.999584
0.999622 1.00002 0.999896 0.999703
0.99952 1 1 0.99952
1.00014 1 1.00068 0.999459
0.999636 1 1 0.999636
1.00137 1.00226 0.999451 0.99966
0.999598 1 1 0.999598
1.00003 1 1.00053 0.999505
0.99934 1.00001 0.999804 0.999524
1.0007 1 1.00128 0.999424
0.996952 1.00597 0.991573 0.999455
0.999701 1 1 0.999701
0.999654 1 1 0.999654
0.999621 1 1 0.999621
0.999893 1 1 0.999893
0.999781 1 1 0.999781
0.999726 1 1 0.999726
0.999652 1 1 0.999652
0.999894 1 1 0.999894
0.999788 1 1 0.999788
0.999624 1 1 0.999624
0.999723 1 1 0.999723
0.99966 1 1 0.99966
0.999604 1 1 0.999604
0.999671 1 1 0.999671
0.999727 1 1 0.999727
0.99978 1 1 0.99978
0.999877 1 1 0.999877
0.999804 1 1 0.999804
0.999876 1 1 0.999876
0.999992 1 1 0.999992
0.999992 1 1 0.999992
1 1 1 1
0.999992 1 1 0.999992
1 1 1 1
1 1 1 1
1 1 1 1
1 1 1 1
1 1 1 1
1 1 1 1
0.999999 1 1 0.999999
1 1 1 1
1 1 1 1
1 1 1 1
1 1 1 1
1 1 1 1
1 1 1 1
0.999659 1 1 0.999659
0.999554 1 1 0.999554
0.999561 1 1 0.999561
0.999569 1 1 0.999569
0.999589 1 1 0.999589
0.999668 1 1 0.999668
0.9996 1 1 0.9996
0.998323 1.00329 0.995308 0.99974
1 1.00054 0.999705 0.99976
0.999934 1 1 0.999934
0.999532 1 1 0.999532
0.999528 1 1 0.999528
0.999686 1 1 0.999686
0.999687 1 1 0.999687
0.999603 1 1.00005 0.999549
0.999534 1 1 0.999534
0.999733 1 1 0.999733
0.999673 1 1 0.999673
0.999641 1 1 0.999641
0.999584 1 1 0.999584
0.999994 1 1 0.999994
0.999672 1 1 0.999672
0.999905 1 1 0.999905
0.999759 1 1 0.999759
0.999902 1 1 0.999902
0.999521 1 1 0.999521
0.99992 1 1 0.99992
0.999902 1 1 0.999902
0.999818 1 1 0.999818
0.999609 1 1 0.999609
0.999267 1 0.999476 0.999791
0.999646 1 1 0.999646
1.00081 1 1.00132 0.999483
0.999655 1 1.00004 0.99961
0.999774 1 1 0.999774
0.999686 1 1 0.999686
0.999627 1 1 0.999627
0.999595 1 1.00003 0.999561
0.999605 1 1 0.999605
0.999555 1 1.00004 0.99951
0.99713 1 0.99739 0.999739
0.999396 1 0.999716 0.99968
1.00043 1 1.00093 0.999501
1.00061 1 1.00102 0.999587
0.999819 1 1 0.999819
0.999787 1 1 0.999787
0.999748 1 1 0.999748
0.999691 1 1 0.999691
0.99963 1 1 0.99963
0.999557 1 1 0.999557
1.00113 1 1.0016 0.999536
0.999686 1 1 0.999686
0.99963 1 1 0.99963
0.999665 1 1 0.999665
0.999603 1 0.999905 0.999698
0.999522 1 1 0.999522
0.999645 1 1.00007 0.999574
0.999989 1 1.00053 0.999457
0.99964 1 1 0.99964
1.00149 1.00242 0.999409 0.999669
0.999598 1 1 0.999598
0.999934 1 1.00043 0.999504
0.999392 1.00017 0.999679 0.99954
1.00134 1 1.00192 0.999421
0.999976 1.00846 0.992094 0.99949
0.999606 1 1 0.999606
1.00073 1.00247 0.998759 0.999497
0.999565 1 1 0.999565
1.0028 1 1.00335 0.999453
1.00048 1 1.00106 0.999417