# vtk DataFile Version 2.0
Wound Healing Simulation
ASCII
DATASET UNSTRUCTURED_GRID
POINTS 3012 float
69.9759 18.75 4
67.2507 60.3285 4
69.976 18.75 2
73.0099 25.446 4
71.1327 20.9142 4
68.6801 16.6661 4
67.8267 19.926 3.98495
67.2507 60.3286 2
71.1327 54.0858 4
68.6801 58.3339 4
65.6939 62.2254 4
65.3134 59.0025 3.98607
74.6784 42.3946 4
73.7221 47.2057 4
69.9759 18.75 0
73.0099 25.446 2
68.6801 16.6661 2
71.1327 20.9142 2
67.8272 19.9285 2
74.6792 32.6053 4
73.7222 27.7943 4
72.1454 23.1494 4
70.6151 26.2215 3.98474
68.8868 21.9586 3.98499
67.2507 14.6715 4
66.6384 17.9709 3.98549
65.7997 21.0245 3.97747
67.2507 60.3285 0
71.1327 54.0858 2
68.6801 58.3339 2
65.694 62.2255 2
65.3145 59.0005 2
72.1454 51.8506 4
69.9759 56.25 4
68.8372 53.1128 3.98411
64.0165 64.0165 4
66.6119 57.1346 3.98561
63.8869 60.7673 3.98779
63.5031 57.7747 3.97999
60.3285 67.2507 4
74.6792 42.3947 2
73.7222 47.2057 2
74.9194 39.9526 4
74.2788 44.8158 4
72.1686 42.0857 3.98282
73.0099 49.554 4
71.25 46.5982 3.98377
73.0099 25.446 0
71.1327 20.9142 0
68.6801 16.6661 0
67.8267 19.926 0.0150546
74.6792 32.6053 2
73.7222 27.7943 2
67.2508 14.6715 2
72.1455 23.1494 2
70.6151 26.222 2
66.6392 17.9732 2
68.8871 21.9606 2
65.7993 21.0244 2
74.9197 35.0474 4
74.2794 30.1841 4
72.1853 32.9433 3.98327
71.279 28.4316 3.98429
69.8165 24.0603 3.98492
68.3489 26.9512 3.97562
66.7647 22.9331 3.97641
65.694 12.7746 4
65.3251 16.1019 3.98688
64.7168 19.1927 3.97903
63.8896 22.0342 3.97332
71.1327 54.0858 0
65.6939 62.2254 0
68.6801 58.3339 0
65.3134 59.0025 0.0139318
72.1455 51.8506 2
69.9759 56.25 2
68.8375 53.1106 2
64.0165 64.0165 2
66.6128 57.132 2
63.888 60.7662 2
63.5032 57.7755 2
62.2254 65.694 4
58.8952 65.4149 3.99237
69.7697 50.9886 3.98407
67.7847 55.1675 3.98463
66.6511 52.2096 3.97531
62.3372 62.4286 3.98986
64.6637 56.0337 3.97928
62.2051 59.4081 3.98123
61.8263 56.6852 3.97628
58.3339 68.6801 4
60.3285 67.2508 2
73.7221 47.2057 0
74.6784 42.3946 0
74.9197 39.9526 2
74.2794 44.8159 2
72.1684 42.0857 2
73.0099 49.554 2
71.2501 46.5978 2
75 37.5 4
72.4058 39.8023 3.98273
71.7832 44.3531 3.98345
69.8051 41.79 3.97356
70.5759 48.8134 3.98384
68.9141 46.0155 3.97465
74.6792 32.6053 0
73.7222 27.7943 0
67.2507 14.6715 0
72.1454 23.1494 0
70.6151 26.2215 0.0152567
68.8868 21.9586 0.0150121
66.6384 17.9709 0.0145148
65.7997 21.0245 0.0225294
74.9197 35.0474 2
74.2794 30.1841 2
72.1851 32.9434 2
71.279 28.4317 2
65.694 12.7745 2
65.3261 16.1033 2
69.8167 24.0616 2
68.3489 26.9514 2
64.7168 19.1921 2
66.7644 22.9333 2
63.8893 22.0339 2
72.4136 35.2242 3.98273
71.8045 30.6763 3.98361
69.8412 33.268 3.97424
68.9682 29.0378 3.97536
67.6132 24.912 3.97578
66.1968 27.6337 3.97216
64.0165 10.9835 4
64.7586 23.8295 3.97267
63.8913 14.3256 3.98842
63.5164 17.4431 3.98122
62.9103 20.3179 3.9745
62.0942 22.9423 3.97107
60.6848 11.0964 3.99062
57.6131 11.4435 3.98478
72.1454 51.8506 0
69.9759 56.25 0
68.8372 53.1128 0.0158935
64.0165 64.0165 0
63.8869 60.7673 0.0122064
66.6119 57.1346 0.0143868
63.5031 57.7747 0.0200116
62.2255 65.694 2
58.8957 65.4149 2
69.7699 50.9872 2
67.7853 55.1649 2
66.6508 52.2092 2
62.3381 62.428 2
64.6637 56.0342 2
62.2052 59.4091 2
61.8265 56.6862 2
60.6697 63.9779 3.99129
57.0259 66.7358 3.99302
57.559 63.6949 3.98649
67.509 50.1772 3.97467
65.7041 54.1742 3.97674
64.5387 51.3862 3.97118
60.7747 60.9417 3.98291
62.8234 55.071 3.97582
60.661 58.1644 3.97715
60.3307 55.7897 3.97536
56.25 69.9759 4
58.3339 68.6801 2
60.3285 67.2507 0
58.9219 9.65477 3.99151
62.2254 9.30607 4
73.0099 49.554 0
74.2788 44.8158 0
71.25 46.5982 0.0162315
72.1686 42.0857 0.0171802
74.9194 39.9526 0
75 37.5 2
72.4057 39.8024 2
71.7831 44.3527 2
69.8049 41.7898 2
70.5759 48.8126 2
68.9141 46.0152 2
72.4891 37.5121 3.98254
70.042 39.6575 3.9732
69.432 43.9081 3.9743
67.5982 41.4982 3.97008
68.2675 48.1077 3.97439
66.7119 45.4412 3.97124
74.9197 35.0474 0
74.2794 30.1841 0
72.1853 32.9433 0.0167301
71.279 28.4316 0.0157073
65.694 12.7746 0
65.3251 16.1019 0.0131236
69.8165 24.0603 0.0150832
68.3489 26.9512 0.0243775
66.7647 22.9331 0.0235855
64.7168 19.1927 0.0209699
63.8896 22.0342 0.0266768
72.4135 35.2241 2
71.8045 30.6765 2
69.841 33.2682 2
68.9683 29.0379 2
64.0165 10.9835 2
63.8922 14.3265 2
63.5166 17.4422 2
67.613 24.9122 2
66.1967 27.6337 2
62.9103 20.3171 2
64.7583 23.8293 2
62.0941 22.9421 2
60.6854 11.0969 2
57.6133 11.4428 2
70.0586 35.3918 3.97332
69.4685 31.1492 3.97445
67.6567 33.5903 3.97086
66.7744 29.6218 3.97149
65.5259 25.6987 3.97228
64.1483 28.2544 3.9712
62.3426 12.6536 3.98956
62.858 24.6367 3.97113
62.2015 15.7804 3.98269
61.8174 18.6804 3.97688
61.2197 21.3397 3.97166
60.4253 23.7273 3.97052
59.2473 12.775 3.98324
55.875 10.2302 3.98631
56.406 13.1083 3.98147
69.7697 50.9886 0.0159333
62.2254 65.694 0
58.8952 65.4149 0.00763227
67.7847 55.1675 0.0153749
66.6511 52.2096 0.0246866
62.3372 62.4286 0.010142
62.2051 59.4081 0.0187716
64.6637 56.0337 0.0207195
61.8263 56.6852 0.023718
60.6703 63.9776 2
57.0263 66.7359 2
57.5591 63.696 2
67.5089 50.1767 2
65.7039 54.1742 2
64.5385 51.3862 2
60.7749 60.9428 2
62.8235 55.0718 2
60.6613 58.1655 2
60.3311 55.7904 2
55.0713 67.9328 3.99325
59.2205 62.3696 3.98405
55.8058 64.9128 3.9886
56.3281 62.0948 3.98269
65.3329 49.4093 3.97071
63.7076 53.2937 3.97216
62.4413 50.6532 3.96918
59.3352 59.5621 3.97999
61.0794 54.3122 3.9747
59.2914 57.0168 3.97391
59.2443 55.1859 3.9767
48.1038 68.5804 3.9896
50.9489 69.9324 3.99352
54.0858 71.1327 4
56.25 69.976 2
58.3339 68.6801 0
57.0592 8.33489 3.99183
60.3285 7.74928 4
58.9225 9.65506 2
62.2255 9.30602 2
70.5759 48.8134 0.016158
71.7832 44.3531 0.0165478
68.9141 46.0155 0.0253482
69.8051 41.79 0.0264355
72.4058 39.8023 0.0172703
75 37.5 0
72.4889 37.5121 2
70.0419 39.6574 2
69.4319 43.9079 2
67.598 41.4981 2
68.2674 48.1073 2
66.7118 45.4411 2
70.13 37.5215 3.97328
67.8351 39.5126 3.96981
67.2253 43.4709 3.97066
65.5565 41.2105 3.96991
66.0701 47.419 3.97083
64.6543 44.8496 3.97038
72.4136 35.2242 0.0172669
71.8045 30.6763 0.0163936
69.8412 33.268 0.0257587
68.9682 29.0378 0.0246393
64.0165 10.9835 0
63.8913 14.3256 0.0115847
63.5164 17.4431 0.0187847
67.6132 24.912 0.0242216
66.1968 27.6337 0.0278406
64.7586 23.8295 0.0273326
62.9103 20.3179 0.0255036
62.0942 22.9423 0.0289264
60.6848 11.0964 0.00938359
57.6131 11.4435 0.0152215
70.0585 35.3919 2
69.4686 31.1493 2
67.6566 33.5903 2
66.7745 29.6217 2
62.3433 12.6543 2
62.2015 15.7796 2
61.8177 18.6792 2
65.5257 25.6986 2
64.1482 28.2543 2
61.2199 21.3392 2
62.8578 24.6366 2
60.4252 23.7271 2
59.2473 12.7744 2
56.406 13.1073 2
55.8751 10.2294 2
67.871 35.5472 3.96999
67.2666 31.6218 3.97069
65.6989 33.9267 3.97035
64.6648 30.191 3.97031
63.5394 26.4134 3.97121
62.2592 28.7766 3.97174
60.7768 14.2196 3.98298
61.0447 25.3372 3.97114
60.6158 17.1226 3.97967
60.2252 19.8129 3.97377
59.6612 22.2577 3.96987
58.9759 24.3203 3.97198
54.038 9.13338 3.98711
57.9114 14.3271 3.98134
54.7873 12.0075 3.98288
55.3132 14.6407 3.98003
67.509 50.1772 0.0253339
57.0259 66.7358 0.00698237
60.6697 63.9779 0.00870679
57.559 63.6949 0.0135108
65.7041 54.1742 0.0232639
64.5387 51.3862 0.0288202
60.7747 60.9417 0.0170929
60.661 58.1644 0.0228514
62.8234 55.071 0.0241791
60.3307 55.7897 0.0246412
55.0717 67.9329 2
59.2206 62.3707 2
55.8057 64.9137 2
56.3281 62.0962 2
65.3328 49.4092 2
63.7075 53.2941 2
62.4412 50.6532 2
59.3355 59.5635 2
61.0797 54.3128 2
59.2919 57.0176 2
59.2449 55.1863 2
53.0431 69.0006 3.99344
53.9681 66.0149 3.98926
57.882 60.8748 3.98135
54.6849 63.2121 3.98475
55.2124 60.6219 3.98082
63.1944 48.6622 3.96921
61.741 52.5764 3.96982
60.2708 50.0199 3.96864
58.0198 58.266 3.97633
59.3281 53.9489 3.97386
58.1278 55.8138 3.97209
50.1105 67.8583 3.98956
47.4642 66.5842 3.98715
46.0573 69.1597 3.98963
48.1037 68.5809 2
48.803 70.7237 3.99361
50.9492 69.9325 2
51.8506 72.1454 4
54.0858 71.1327 2
56.25 69.9759 0
55.1035 7.13945 3.99213
58.3339 6.31992 4
57.0597 8.33494 2
60.3286 7.74926 2
58.9219 9.65477 0.00849206
62.2254 9.30607 0
68.2675 48.1077 0.0256104
69.432 43.9081 0.025698
66.7119 45.4412 0.0287559
67.5982 41.4982 0.0299209
70.042 39.6575 0.0268023
72.4891 37.5121 0.0174622
70.1299 37.5215 2
67.8351 39.5126 2
67.2253 43.4709 2
65.5563 41.2104 2
66.07 47.4189 2
64.6542 44.8496 2
67.9314 37.5219 3.96987
65.7869 39.3706 3.96977
65.1775 43.0262 3.97011
63.748 40.9303 3.97128
63.9665 46.7178 3.96976
62.8088 44.2175 3.97162
70.0586 35.3918 0.0266789
69.4685 31.1492 0.025553
67.6567 33.5903 0.0291352
66.7744 29.6218 0.0285144
62.3426 12.6536 0.0104439
62.2015 15.7804 0.0173105
61.8174 18.6804 0.0231152
65.5259 25.6987 0.0277167
64.1483 28.2544 0.028798
62.858 24.6367 0.0288731
61.2197 21.3397 0.0283373
60.4253 23.7273 0.0294812
59.2473 12.775 0.0167557
56.406 13.1083 0.0185293
55.875 10.2302 0.0136948
67.871 35.5472 2
67.2667 31.6217 2
65.6988 33.9266 2
64.6649 30.1908 2
60.7769 14.2189 2
60.6158 17.1214 2
60.2256 19.8119 2
63.5392 26.4133 2
62.2591 28.7765 2
59.6614 22.2573 2
61.0446 25.3372 2
58.9759 24.3206 2
57.9112 14.3263 2
55.313 14.6398 2
54.0381 9.13266 2
54.7873 12.0065 2
65.8761 35.6665 3.96968
65.187 32.1536 3.96977
64.281 34.2494 3.97079
62.5951 30.6349 3.97103
61.6518 27.0713 3.97127
60.8495 29.1394 3.97334
59.3125 15.6639 3.98098
59.3269 25.7961 3.97239
59.126 18.3508 3.97755
58.7403 20.8523 3.97054
58.2822 23.0931 3.96948
57.9636 24.6646 3.97232
52.1127 8.15163 3.98777
53.0583 11.0136 3.9838
56.6776 15.7371 3.98049
53.8098 13.6756 3.98123
54.3767 15.9931 3.98002
55.0713 67.9328 0.00675341
65.3329 49.4093 0.0292882
55.8058 64.9128 0.0113967
59.2205 62.3696 0.015946
56.3281 62.0948 0.0173069
63.7076 53.2937 0.0278448
62.4413 50.6532 0.0308163
59.3352 59.5621 0.0200113
59.2914 57.0168 0.0260892
61.0794 54.3122 0.025299
59.2443 55.1859 0.023295
53.0434 69.0007 2
53.968 66.0157 2
57.882 60.8761 2
54.6848 63.2133 2
55.2125 60.6233 2
63.1943 48.6622 2
61.7411 52.5767 2
60.2707 50.0198 2
58.0204 58.2675 2
59.3287 53.9491 2
58.1284 55.8138 2
52.0716 67.0015 3.98949
52.9543 64.2227 3.98635
[...]
POINT_DATA 3012
SCALARS Jp_lamdaP float 4
LOOKUP_TABLE default
0.999984 1 1 0.999984
1 1 1 1
0.999986 1 1 0.999986
0.99996 1 1 0.99996
0.999978 1 1 0.999978
0.999991 1 1 0.999991
0.999776 1 1 0.999776
1 1 1 1
1 1 1 1
1 1 1 1
1 1 1 1
0.999904 1 1 0.999904
0.999929 1 1 0.999929
0.999958 1 1 0.999958
0.999987 1 1 0.999987
0.999964 1 1 0.999964
0.999993 1 1 0.999993
0.999981 1 1 0.999981
0.999778 1 1 0.999778
1 1 1 1
0.999954 1 1 0.999954
0.999969 1 1 0.999969
0.999665 1 1 0.999665
0.999739 1 1 0.999739
0.999999 1 1 0.999999
0.99982 1 1 0.99982
0.999425 1 1 0.999425
1 1 1 1
0.999985 1 1 0.999985
0.999995 1 1 0.999995
1 1 1 1
0.999911 1 1 0.999911
0.999966 1 1 0.999966
0.999986 1 1 0.999986
0.999805 1 1 0.999805
1 1 1 1
0.99988 1 1 0.99988
0.999937 1 1 0.999937
0.999504 1 1 0.999504
1 1 1 1
1 1 1 1
0.999977 1 1 0.999977
1 1 1 1
0.999948 1 1 0.999948
0.99963 1 1 0.99963
1 1 1 1
0.999742 1 1 0.999742
0.999968 1 1 0.999968
0.999982 1 1 0.999982
0.999994 1 1 0.999994
0.999782 1 1 0.999782
0.999966 1 1 0.999966
0.999958 1 1 0.999958
0.999999 1 1 0.999999
0.999973 1 1 0.999973
0.999666 1 1 0.999666
0.999822 1 1 0.999822
0.999742 1 1 0.999742
0.999412 1 1 0.999412
1 1 1 1
0.999943 1 1 0.999943
0.999691 1 1 0.999691
0.999646 1 1 0.999646
0.9997 1 1 0.9997
0.999164 1 1 0.999164
0.999299 1 1 0.999299
1 1 1 1
0.99988 1 1 0.99988
0.999521 1 1 0.999521
0.999031 1 1 0.999031
1 1 1 1
1 1 1 1
1 1 1 1
0.999918 1 1 0.999918
1 1 1 1
1 1 1 1
0.999798 1 1 0.999798
1 1 1 1
0.999882 1 1 0.999882
0.999948 1 1 0.999948
0.999503 1 1 0.999503
1 1 1 1
1 1 1 1
0.999755 1 1 0.999755
0.999832 1 1 0.999832
0.99922 1 1 0.99922
0.999974 1 1 0.999974
0.999449 1 1 0.999449
0.999558 1 1 0.999558
0.999235 1 1 0.999235
1 1 1 1
1 1 1 1
1 1 1 1
1 1 1 1
1 1 1 1
0.999971 1 1 0.999971
0.999661 1 1 0.999661
0.99998 1 1 0.99998
0.999735 1 1 0.999735
1 1 1 1
0.999599 1 1 0.999599
0.999713 1 1 0.999713
0.998921 1 1 0.998921
0.999762 1 1 0.999762
0.999022 1 1 0.999022
0.999939 1 1 0.999939
0.999962 1 1 0.999962
1 1 1 1
0.999976 1 1 0.999976
0.999668 1 1 0.999668
0.999745 1 1 0.999745
0.999825 1 1 0.999825
0.999399 1 1 0.999399
1 1 1 1
0.999949 1 1 0.999949
0.999621 1 1 0.999621
0.999646 1 1 0.999646
1 1 1 1
0.999905 1 1 0.999905
0.999702 1 1 0.999702
0.999141 1 1 0.999141
0.999506 1 1 0.999506
0.999314 1 1 0.999314
0.999033 1 1 0.999033
0.999615 1 1 0.999615
0.999629 1 1 0.999629
0.998999 1 1 0.998999
0.999089 1 1 0.999089
0.999197 1 1 0.999197
0.998792 1 1 0.998792
1 1 1 1
0.998954 1 1 0.998954
0.999968 1 1 0.999968
0.999559 1 1 0.999559
0.999112 1 1 0.999112
0.998867 1 1 0.998867
0.999997 1 1 0.999997
0.999738 1 1 0.999738
1 1 1 1
1 1 1 1
0.999804 1 1 0.999804
1 1 1 1
0.999959 1 1 0.999959
0.999886 1 1 0.999886
0.999501 1 1 0.999501
1 1 1 1
1 1 1 1
0.999771 1 1 0.999771
0.999846 1 1 0.999846
0.999222 1 1 0.999222
0.999982 1 1 0.999982
0.999451 1 1 0.999451
0.999558 1 1 0.999558
0.999225 1 1 0.999225
0.999995 1 1 0.999995
1 1 1 1
0.999785 1 1 0.999785
0.999122 1 1 0.999122
0.999346 1 1 0.999346
0.998893 1 1 0.998893
0.99963 1 1 0.99963
0.999168 1 1 0.999168
0.999271 1 1 0.999271
0.999121 1 1 0.999121
1 1 1 1
1 1 1 1
1 1 1 1
1 1 1 1
1 1 1 1
1 1 1 1
1 1 1 1
0.999725 1 1 0.999725
0.999647 1 1 0.999647
1 1 1 1
1 1 1 1
0.999601 1 1 0.999601
0.999706 1 1 0.999706
0.998921 1 1 0.998921
0.999743 1 1 0.999743
0.999023 1 1 0.999023
0.999588 1 1 0.999588
0.998863 1 1 0.998863
0.998981 1 1 0.998981
0.998725 1.00011 1 0.99861
0.999062 1 1 0.999062
0.998719 1 1 0.998719
1 1 1 1
0.999955 1 1 0.999955
0.999547 1 1 0.999547
0.999647 1 1 0.999647
1 1 1 1
0.99993 1 1 0.99993
0.999705 1 1 0.999705
0.999118 1 1 0.999118
0.99933 1 1 0.99933
0.999491 1 1 0.999491
0.999034 1 1 0.999034
0.999612 1 1 0.999612
0.999629 1 1 0.999629
0.998952 1 1 0.998952
0.999107 1 1 0.999107
1 1 1 1
0.99996 1 1 0.99996
0.999579 1 1 0.999579
0.999198 1 1 0.999198
0.998764 1 1 0.998764
0.999108 1 1 0.999108
0.998968 1 1 0.998968
0.998869 1 1 0.998869
0.999994 1 1 0.999994
0.999738 1 1 0.999738
0.998875 1 1 0.998875
0.999056 1 1 0.999056
0.998673 1 1 0.998673
0.998694 1 1 0.998694
0.998881 1 1 0.998881
0.998668 1.00001 1 0.998659
0.999986 1 1 0.999986
0.998799 1 1 0.998799
0.999606 1 1 0.999606
0.999224 1 1 0.999224
0.998948 1 1 0.998948
0.998838 1.00002 1 0.998813
0.999668 1 1 0.999668
0.999822 1 1 0.999822
0.99942 1 1 0.99942
0.999767 1 1 0.999767
1 1 1 1
1 1 1 1
0.99985 1 1 0.99985
0.999225 1 1 0.999225
0.999989 1 1 0.999989
0.999557 1 1 0.999557
0.999452 1 1 0.999452
0.999215 1 1 0.999215
0.999997 1 1 0.999997
1 1 1 1
0.999786 1 1 0.999786
0.999123 1 1 0.999123
0.99935 1 1 0.99935
0.998893 1 1 0.998893
0.999631 1 1 0.999631
0.999177 1 1 0.999177
0.999269 1 1 0.999269
0.999111 1 1 0.999111
1 1 1 1
0.999702 1 1 0.999702
0.999867 1 1 0.999867
0.999482 1 1 0.999482
0.9988 1 1 0.9988
0.999046 1 1 0.999046
0.999175 1.00045 1 0.998731
0.999348 1 1 0.999348
0.999054 1 1 0.999054
0.999437 1 1.00035 0.999088
0.999026 1 1 0.999026
0.999972 1 1 0.999972
1 1 1 1
1 1 1 1
1 1 1 1
1 1 1 1
1 1 1 1
1 1 1 1
0.999999 1 1 0.999999
1 1 1 1
0.999745 1 1 0.999745
0.999693 1 1 0.999693
0.999023 1 1 0.999023
0.998922 1 1 0.998922
0.999603 1 1 0.999603
1 1 1 1
0.999587 1 1 0.999587
0.998863 1 1 0.998863
0.998981 1 1 0.998981
0.998691 1.00008 1 0.99861
0.999063 1 1 0.999063
0.998719 1 1 0.998719
0.998848 1 1 0.998848
0.998813 1.00026 1 0.998551
0.998671 1 1 0.998671
1.00091 1.00239 1 0.998529
0.998756 1 1 0.998756
0.999309 1.00069 1 0.998619
0.999609 1 1 0.999609
0.99963 1 1 0.99963
0.998905 1 1 0.998905
0.999124 1 1 0.999124
1 1 1 1
0.999953 1 1 0.999953
0.999599 1 1 0.999599
0.9992 1 1 0.9992
0.998736 1 1 0.998736
0.998981 1 1 0.998981
0.999104 1 1 0.999104
0.998872 1 1 0.998872
0.999992 1 1 0.999992
0.999738 1 1 0.999738
0.998859 1 1 0.998859
0.999056 1 1 0.999056
0.998679 1.00002 1 0.998661
0.998723 1 1 0.998723
0.999982 1 1 0.999982
0.999605 1 1 0.999605
0.999245 1 1 0.999245
0.998881 1 1 0.998881
0.998721 1.00007 1 0.998652
0.998925 1 1 0.998925
0.9988 1 1 0.9988
0.99892 1.00011 1 0.998814
0.999669 1 1 0.999669
0.999418 1 1 0.999418
0.99982 1 1 0.99982
0.998699 1.00009 1 0.998614
0.998699 1 1 0.998699
1.00028 1.00176 1 0.998525
0.998896 1.0003 1 0.998592
0.998742 1.00002 1 0.998727
0.999809 1.00116 1 0.998655
0.999633 1 1 0.999633
0.999172 1.00041 1 0.998765
0.999353 1 1 0.999353
0.99903 1 1 0.99903
0.998811 1 1 0.998811
0.999104 1.00024 1 0.99886
0.999885 1 1 0.999885
0.999406 1 1 0.999406
0.999458 1 1 0.999458
0.999302 1 1 0.999302
0.999124 1 1 0.999124
1 1 1 1
0.999999 1 1 0.999999
0.999787 1 1 0.999787
0.999354 1 1 0.999354
0.998892 1 1 0.998892
0.999631 1 1 0.999631
0.999268 1 1 0.999268
0.999186 1 1 0.999186
0.9991 1 1 0.9991
1 1 1 1
0.999702 1 1 0.999702
0.99987 1 1 0.99987
0.999481 1 1 0.999481
0.998798 1 1 0.998798
0.999049 1 1 0.999049
0.999027 1.0003 1 0.998731
0.999349 1 1 0.999349
0.999065 1 1 0.999065
0.999283 1 1.0002 0.999082
0.999064 1 1 0.999064
1 1 1 1
0.999919 1 1 0.999919
0.99942 1 1 0.99942
0.99956 1 1 0.99956
0.999311 1 1 0.999311
0.999322 1.00066 1 0.998659
0.998903 1.00001 1 0.998897
0.999476 1.0008 1 0.998676
0.999405 1 1.00026 0.999146
0.998991 1 1 0.998991
0.999292 1 1.00039 0.998903
0.999961 1 1 0.999961
0.999758 1 1 0.999758
0.99998 1 1 0.99998
0.999974 1 1 0.999974
1 1 1 1
1 1 1 1
1 1 1 1
1 1 1 1
1 1 1 1
1 1 1 1
1 1 1 1
1 1 1 1
1 1 1 1
0.999999 1 1 0.999999
1 1 1 1
0.999063 1 1 0.999063
0.998981 1 1 0.998981
0.998719 1 1 0.998719
0.998656 1.00005 1 0.998609
0.998863 1 1 0.998863
0.999586 1 1 0.999586
0.998848 1 1 0.998848
0.998778 1.00023 1 0.998551
0.998671 1 1 0.998671
1.00081 1.00229 1 0.998525
0.998754 1 1 0.998754
0.999117 1.0005 1 0.998619
0.998767 1.00023 1 0.998535
1.00275 1.00428 1 0.998474
1.00017 1.0016 1 0.998572
1.00504 1.00653 1 0.998527
0.999004 1.00036 1 0.998645
1.00153 1.00287 1 0.998657
0.998844 1 1 0.998844
0.999055 1 1 0.999055
0.998688 1.00004 1 0.998649
0.998753 1 1 0.998753
0.999977 1 1 0.999977
0.999605 1 1 0.999605
0.999267 1 1 0.999267
0.998881 1 1 0.998881
0.998775 1.00013 1 0.998646
0.9988 1 1 0.9988
0.998902 1 1 0.998902
0.999019 1.0002 1 0.998815
0.99967 1 1 0.99967
0.999415 1 1 0.999415
0.999819 1 1 0.999819
0.998716 1.00013 1 0.998589
0.998698 1 1 0.998698
1.00055 1.00204 1 0.998515
0.999159 1.00056 1 0.998597
0.999634 1 1 0.999634
0.99935 1 1 0.99935
0.999056 1 1 0.999056
0.998752 1.00002 1 0.998736
0.999885 1.00122 1 0.998663
0.998794 1 1 0.998794
0.999385 1.00062 1 0.998766
0.999163 1.00029 1 0.998869
0.999409 1 1 0.999409
0.999288 1 1 0.999288
0.999882 1 1 0.999882
0.999469 1 1 0.999469
1.00123 1.00277 1 0.998467
0.999849 1.00129 1 0.998558
1.00471 1.00624 1 0.998478
1.00078 1.00219 1 0.998584
0.999956 1.00124 1 0.998716
1.00237 1.00368 1 0.998688
0.999398 1 1 0.999398
1.00034 1.00149 1 0.998853
0.999187 1 1 0.999187
0.998878 1 1.00001 0.998871
0.99873 1 1 0.99873
0.999796 1.00093 1 0.99887
0.999918 1 1 0.999918
0.999535 1 1 0.999535
0.999296 1 1 0.999296
0.999315 1 1 0.999315
0.999244 1 1 0.999244
1 1 1 1
0.998796 1 1 0.998796
0.999874 1 1 0.999874
0.999702 1 1 0.999702
0.999479 1 1 0.999479
0.999051 1 1 0.999051
0.998885 1.00016 1 0.998731
0.999351 1 1 0.999351
0.999207 1 1.00013 0.999075
0.999076 1 1 0.999076
0.999103 1 1 0.999103
1 1 1 1
0.999923 1 1 0.999923
0.99942 1 1 0.99942
0.999559 1 1 0.999559
0.9993 1 1 0.9993
0.999337 1.00068 1 0.998657
0.998902 1 1 0.998898
0.999473 1.0008 1 0.998671
0.999389 1 1.00024 0.999148
0.998999 1 1 0.998999
0.999515 1 1.0006 0.998918
0.999945 1 1 0.999945
0.999635 1 1 0.999635
0.999232 1 1 0.999232
0.999369 1 1 0.999369
0.999207 1 1 0.999207
1.00049 1.00187 1 0.998629
0.999159 1.00032 1 0.998834
0.999966 1.00121 1 0.998758
1.00093 1 1.00197 0.998968
0.998816 1 1 0.998816
0.999964 1 1 0.999964
0.999702 1 1 0.999702
0.999743 1 1 0.999743
0.999603 1 1 0.999603
0.999766 1 1 0.999766
0.999984 1 1 0.999984
0.999981 1 1 0.999981
1 1 1 1
0.999977 1 1 0.999977
1 1 1 1
1 1 1 1
1 1 1 1
1 1 1 1
1 1 1 1
1 1 1 1
1 1 1 1
1 1 1 1
1 1 1 1
1 1 1 1
1 1 1 1
0.998753 1 1 0.998753
0.998671 1 1 0.998671
0.998924 1.0003 1 0.998619
1.00069 1.00218 1 0.99852
0.998748 1.0002 1 0.998551
0.998847 1 1 0.998847
0.99879 1.00025 1 0.998535
1.00279 1.00433 1 0.998466
0.999857 1.00129 1 0.998572
1.00506 1.00654 1 0.998529
0.999151 1.00051 1 0.998643
1.00136 1.00271 1 0.998658
1.00246 1.00402 1 0.998443
1.0079 1.00945 1 0.998469
1.0033 1.00472 1 0.998586
1.00696 1.00843 1 0.99854
1.00136 1.00271 1 0.998655
1.0044 1.00571 1 0.998701
0.998728 1.00016 1 0.998564
0.998698 1 1 0.998698
1.00081 1.00231 1 0.998505
0.999423 1.00082 1 0.998602
0.999635 1 1 0.999635
0.999347 1 1 0.999347
0.999082 1 1 0.999082
0.998762 1.00002 1 0.998746
0.999953 1.00128 1 0.99867
0.999578 1.00081 1 0.998766
0.998778 1 1 0.998778
0.999212 1.00033 1 0.998878
0.999411 1 1 0.999411
0.999274 1 1 0.999274
0.999879 1 1 0.999879
0.999481 1 1 0.999481
1.00157 1.00311 1 0.998468
1.00003 1.00147 1 0.998558
1.00424 1.00577 1 0.998481
1.0006 1.00202 1 0.998584
0.999397 1 1 0.999397
0.999208 1 1 0.999208
0.998982 1 1.00011 0.998869
1.00001 1.0013 1 0.998711
1.00226 1.00355 1 0.998718
0.99872 1 1 0.99872
1.00061 1.00175 1 0.998854
0.999601 1.0007 1 0.9989
0.999296 1 1 0.999296
0.99924 1 1 0.99924
0.999313 1 1 0.999313
0.999895 1 1 0.999895
0.999545 1 1 0.999545
1.00709 1.00866 1 0.998444
1.00443 1.00595 1 0.998487
1.00364 1.00502 1 0.998624
1.00273 1.00396 1 0.998772
0.99929 1 1 0.99929
1.0023 1.00338 1 0.998924
0.999118 1 1.00005 0.99907
0.999008 1 1.00033 0.998674
0.999087 1.00043 1 0.99866
0.999901 1 1 0.999901
0.999638 1 1 0.999638
0.999391 1 1 0.999391
0.999262 1 1 0.999262
0.999202 1 1 0.999202
0.999202 1 1 0.999202
1 1 1 1
0.999928 1 1 0.999928
0.999341 1.00069 1 0.998654
0.999559 1 1 0.999559
0.99942 1 1 0.99942
0.999289 1 1 0.999289
0.998899 1 1 0.998899
0.999421 1.00076 1 0.998666
0.999294 1 1.00014 0.999151
0.999488 1 1.00056 0.998933
0.999008 1 1 0.999008
0.999949 1 1 0.999949
0.999636 1 1 0.999636
0.99924 1 1 0.99924
0.999368 1 1 0.999368
0.999194 1 1 0.999194
1.00048 1.00185 1 0.998626
0.998981 1.00015 1 0.99883
0.999975 1.0012 1 0.998774
1.00047 1 1.00151 0.998958
0.998843 1 1.00006 0.998787
0.999691 1 1 0.999691
0.999414 1 1 0.999414
0.999999 1 1.0009 0.9991
0.999205 1 1 0.999205
0.999115 1 1 0.999115
1.00363 1.00482 1 0.99882
0.999037 1.0003 1 0.998736
1.00115 1.00237 1 0.998779
1.00196 1 1.0031 0.998856
0.998599 1 1 0.998599
0.999967 1 1 0.999967
0.999715 1 1 0.999715
0.999522 1 1 0.999522
0.999728 1 1 0.999728
0.999766 1 1 0.999766
0.999581 1 1 0.999581
0.999467 1 1 0.999467
0.999575 1 1 0.999575
0.999774 1 1 0.999774
0.999984 1 1 0.999984
0.999984 1 1 0.999984
1 1 1 1
0.999983 1 1 0.999983
1 1 1 1
1 1 1 1
1 1 1 1
1 1 1 1
1 1 1 1
1 1 1 1
1 1 1 1
1 1 1 1
1 1 1 1
1 1 1 1
1 1 1 1
0.999311 1.00067 1 0.99864
0.999554 1.00098 1 0.998572
1.00121 1.00256 1 0.998658
1.00508 1.00656 1 0.998531
1.00284 1.00439 1 0.998459
0.998812 1.00028 1 0.998536
1.00255 1.00412 1 0.998439
1.00778 1.00933 1 0.998469
1.00361 1.00504 1 0.998576
1.00726 1.00874 1 0.998537
1.00095 1.0023 1 0.998655
1.00425 1.00554 1 0.998719
1.00816 1.00973 1 0.998439
1.00879 1.0103 1 0.99851
1.00737 1.00877 1 0.998614
1.00462 1.00585 1 0.998782
1.00191 1.00345 1 0.998469
1.0002 1.00164 1 0.998558
1.00378 1.00531 1 0.998484
1.00043 1.00185 1 0.998585
0.999397 1 1 0.999397
0.999229 1 1 0.999229
0.999196 1 1.00033 0.998866
1.00007 1.00136 1 0.998706
1.0022 1.00345 1 0.998748
1.0009 1.00204 1 0.998855
0.998712 1 1 0.998711
0.999412 1.00048 1 0.99893
0.999297 1 1 0.999297
0.999236 1 1 0.999236
0.99931 1 1 0.99931
0.999872 1 1 0.999872
0.999555 1 1 0.999555
1.00665 1.00821 1 0.998447
1.0044 1.00591 1 0.998493
1.00353 1.0049 1 0.998632
0.999288 1 1 0.999288
0.999189 1 1.00009 0.999095
0.999253 1 1.00058 0.998669
1.00288 1.00412 1 0.998763
0.99906 1.00036 1 0.998697
1.00166 1.00273 1 0.998925
0.999902 1 1 0.999902
0.99926 1 1 0.99926
0.999213 1 1 0.999213
0.999198 1 1 0.999198
0.999398 1 1 0.999398
0.999621 1 1 0.999621
1.00817 1.00972 1 0.998458
1.006 1.00749 1 0.99852
1.00509 1.00641 1 0.998683
1.00488 1.00603 1 0.99886
0.999224 1 1 0.999224
1.00035 1.0016 1 0.998755
0.999904 1 1.00107 0.998832
0.999628 1.00005 1.00104 0.998536
0.999926 1 1 0.999926
0.99969 1 1 0.99969
0.999459 1 1 0.999459
0.999225 1 1 0.999225
0.999203 1 1 0.999203
0.999146 1 1 0.999146
0.999953 1 1 0.999953
0.999636 1 1 0.999636
1.00048 1.00186 1 0.998624
0.999367 1 1 0.999367
0.999249 1 1 0.999249
0.999181 1 1 0.999181
0.998825 1 1 0.998825
1.00002 1.00124 1 0.998789
0.999976 1 1.00103 0.998949
0.999005 1 1.00025 0.998759
0.999691 1 1 0.999691
0.999421 1 1 0.999421
0.999706 1 1.00059 0.999116
0.99921 1 1 0.99921
0.999124 1 1 0.999124
1.00355 1.00474 1 0.998824
0.999035 1.0003 1 0.998737
1.00106 1.00221 1 0.998854
1.00216 1 1.00332 0.998844
0.998589 1 1.00003 0.99856
0.999483 1 1 0.999483
0.99924 1 1 0.99924
1.00162 1 1.00262 0.998999
0.999054 1 1 0.999054
1.00975 1.01091 1 0.998855
1.00605 1.00729 0.999872 0.998906
1.00003 1.00147 1 0.998565
1.00231 1 1.00373 0.998583
0.999727 1 1 0.999727
0.999532 1 1 0.999532
0.999411 1 1 0.999411
0.999766 1 1 0.999766
0.999559 1 1 0.999559
0.999774 1 1 0.999774
0.99945 1 1 0.99945
0.999583 1 1 0.999583
0.999355 1 1 0.999355
0.999451 1 1 0.999451
0.999583 1 1 0.999583
0.999775 1 1 0.999775
0.999982 1 1 0.999982
0.999984 1 1 0.999984
1 1 1 1
0.999984 1 1 0.999984
1 1 1 1
1 1 1 1
1 1 1 1
1 1 1 1
1 1 1 1
1 1 1 1
1 1 1 1
1 1 1 1
1 1 1 1
1 1 1 1
1 1 1 1
1.00053 1.00188 1 0.998656
1.00392 1.00536 1 0.998565
1.00409 1.00536 1 0.998737
1.00755 1.00903 1 0.998534
1.00766 1.0092 1 0.998469
1.00266 1.00423 1 0.998435
1.0079 1.00947 1 0.998444
1.00855 1.01005 1 0.998508
1.00721 1.0086 1 0.99862
1.00538 1.00662 1 0.998776
1.00977 1.01131 1 0.99848
1.00984 1.01126 1 0.998595
1.00868 1.00998 1 0.998714
1.00621 1.00777 1 0.998451
1.00439 1.0059 1 0.9985
1.00337 1.00474 1 0.998639
0.999285 1 1 0.999285
0.999119 1 1 0.999119
0.999314 1 1.00065 0.998664
1.00298 1.00423 1 0.998754
1.00109 1.00217 1 0.998926
0.999024 1.00029 1 0.998735
0.999259 1 1 0.999259
0.999225 1 1 0.999225
0.999194 1 1 0.999194
0.999904 1 1 0.999904
0.999406 1 1 0.999406
0.999604 1 1 0.999604
1.00875 1.01031 1 0.99846
1.00581 1.0073 1 0.99852
1.00506 1.0064 1 0.998671
0.999219 1 1 0.999219
0.999782 1 1.00091 0.998876
0.999477 1.00004 1.0009 0.998543
1.00525 1.00638 1 0.998878
1.00057 1.00183 1 0.998749
0.999944 1 1 0.999944
0.999691 1 1 0.999691
0.999205 1 1 0.999205
0.999163 1 1 0.999163
0.999227 1 1 0.999227
0.999446 1 1 0.999446
1.00932 1.01081 1 0.998526
1.00701 1.00844 1 0.998584
1.00777 1.00905 0.999905 0.998831
1.00541 1.0065 1 0.998919
0.999682 1 1.00058 0.999107
1.00008 1.0002 1.0014 0.998482
1.00115 1 1.00246 0.99869
0.99998 1 1 0.99998
0.999792 1 1 0.999792
0.999694 1 1 0.999694
0.999481 1 1 0.999481
0.99929 1 1 0.99929
0.999105 1 1 0.999105
0.999219 1 1 0.999219
1.001 1 1.00182 0.999186
0.999692 1 1 0.999692
0.999429 1 1 0.999429
1.0034 1.00457 1 0.998829
0.999216 1 1 0.999216
0.999622 1 1.00049 0.999131
0.999132 1 1 0.999132
0.999019 1.00028 1 0.998738
1.00093 1.00201 1 0.998929
1.00235 1 1.00352 0.998832
0.998521 1 1 0.998521
0.999475 1 1 0.999475
0.999249 1 1 0.999249
1.00191 1 1.0029 0.999012
0.999068 1 1 0.999068
1.00921 1.01037 1 0.998849
1.00546 1.00662 0.999949 0.9989
1.00032 1.00172 1 0.998598
1.00184 1 1.00329 0.998562
0.999355 1 1 0.999355
1.01002 1.01164 0.999608 0.998791
0.999114 1 1 0.999114
1.00097 1 1.00211 0.99887
1.01234 1.0137 0.999722 0.998931
1.00475 1.00616 1 0.998595
1.00209 1.00042 1.00323 0.998443
0.999543 1 1 0.999543
0.999411 1 1 0.999411
0.999305 1 1 0.999305
0.999774 1 1 0.999774
0.999591 1 1 0.999591
0.999433 1 1 0.999433
0.999775 1 1 0.999775
0.999583 1 1 0.999583
0.999341 1 1 0.999341
0.999468 1 1 0.999468
0.999271 1 1 0.999271
0.999341 1 1 0.999341
0.999481 1 1 0.999481
0.999598 1 1 0.999598
0.999769 1 1 0.999769
0.999979 1 1 0.999979
0.999981 1 1 0.999981
1 1 1 1
0.999983 1 1 0.999983
1 1 1 1
1 1 1 1
1 1 1 1
1 1 1 1
1 1 1 1
0.999989 1 1 0.999989
1 1 1 1
1 1 1 1
1 1 1 1
1 1 1 1
1 1 1 1
1 1 1 1
1.00616 1.0074 1 0.998771
1.00705 1.00844 1 0.998625
1.00832 1.00983 1 0.998507
1.00764 1.0092 1 0.99845
1.00963 1.01116 1 0.998487
1.01027 1.0117 1 0.998585
1.00927 1.01056 1 0.998728
1.00987 1.01132 1 0.998569
1.01131 1.01265 1 0.99867
1.00771 1.00997 0.998942 0.998826
1.00929 1.01085 1 0.998461
1.00563 1.00713 1 0.998519
1.00514 1.00649 1 0.998658
0.999213 1 1 0.999213
0.999943 1 1.00102 0.99892
0.999329 1 1.00078 0.998549
1.00577 1.00688 1 0.998896
1.00063 1.00189 1 0.998743
0.999206 1 1 0.999206
0.999181 1 1 0.999181
0.999229 1 1 0.999229
0.999962 1 1 0.999962
0.999691 1 1 0.999691
0.999433 1 1 0.999433
1.00883 1.01031 1 0.998537
0.999976 1 1 0.999976
0.99978 1 1 0.99978
1.00671 1.00814 1 0.998583
1.00897 1.01018 1 0.998803
0.999654 1 1.00052 0.999133
1.00183 1 1.00318 0.998658
0.999715 1.00039 1.00084 0.99849
1.00494 1.00603 1 0.998917
0.999728 1 1 0.999728
0.99948 1 1 0.99948
0.999194 1 1 0.999194
1.00015 1 1.00091 0.999242
0.999085 1 1 0.999085
0.999293 1 1 0.999293
1.0102 1.01169 0.999875 0.998645
1.01041 1.01174 1 0.998688
1.00926 1.01078 0.999479 0.999015
1.001 1.0023 1 0.998707
1.00128 1 1.0022 0.999082
1.00386 1 1.00539 0.998478
0.999794 1 1 0.999794
0.999758 1 1 0.999758
0.999626 1 1 0.999626
0.999486 1 1 0.999486
0.999347 1 1 0.999347
0.999144 1 1 0.999144
1.00097 1 1.00197 0.999005
0.999256 1 1 0.999256
0.999468 1 1 0.999468
0.999257 1 1 0.999257
1.00886 1.01003 1 0.998842
1.00505 1.00617 1 0.998894
0.999081 1 1 0.999081
1.00211 1 1.00309 0.999024
1.00066 1.002 1.00004 0.998631
1.00143 1 1.0029 0.998541
0.999352 1 1 0.999352
1.01014 1.01175 0.999595 0.998808
0.999118 1 1 0.999118
1.00106 1 1.00221 0.998851
1.0121 1.01346 0.99974 0.998916
1.00514 1.00654 1 0.998611
1.00229 1.00036 1.00348 0.998451
0.999204 1 1 0.999204
1.01788 1.02097 0.998023 0.998955
0.998999 1 1 0.998999
1.00226 1 1.00359 0.998674
1.00592 1.01003 0.997225 0.998702
1.00182 1.00117 1.00221 0.998438
1.00657 1.00902 0.998555 0.999016
0.99941 1 1 0.99941
0.999305 1 1 0.999305
0.999226 1 1 0.999226
0.999775 1 1 0.999775
0.999582 1 1 0.999582