# vtk DataFile Version 2.0
Wound Healing Simulation
ASCII
DATASET UNSTRUCTURED_GRID
POINTS 3012 float
69.9759 18.75 4
67.2507 60.3285 4
69.976 18.75 2
73.0099 25.446 4
71.1327 20.9142 4
68.6801 16.6661 4
67.8277 19.9247 3.98761
67.2507 60.3286 2
71.1327 54.0858 4
68.6801 58.3339 4
65.6939 62.2254 4
65.3141 59.0041 3.98876
74.6784 42.3946 4
73.7221 47.2057 4
69.9759 18.75 0
73.0099 25.446 2
68.6801 16.6661 2
71.1327 20.9142 2
67.8282 19.926 2
74.6792 32.6053 4
73.7222 27.7943 4
72.1454 23.1494 4
70.6158 26.2225 3.98617
68.8879 21.9582 3.98725
67.2507 14.6715 4
66.6391 17.9693 3.9882
65.8032 21.0214 3.98247
67.2507 60.3285 0
71.1327 54.0858 2
68.6801 58.3339 2
65.694 62.2255 2
65.3145 59.0037 2
72.1454 51.8506 4
69.9759 56.25 4
68.8387 53.1129 3.98699
64.0165 64.0165 4
66.6128 57.136 3.98844
63.8874 60.7689 3.99008
63.5055 57.7788 3.98416
60.3285 67.2507 4
74.6792 42.3947 2
73.7222 47.2057 2
74.9194 39.9526 4
74.2788 44.8158 4
72.1691 42.0854 3.98462
73.0099 49.554 4
71.2508 46.5971 3.98606
73.0099 25.446 0
71.1327 20.9142 0
68.6801 16.6661 0
67.8277 19.9247 0.0123935
74.6792 32.6053 2
73.7222 27.7943 2
67.2508 14.6715 2
72.1455 23.1494 2
70.6158 26.2233 2
66.6397 17.9699 2
68.8882 21.9596 2
65.8034 21.0208 2
74.9197 35.0474 4
74.2794 30.1841 4
72.1858 32.9434 3.98514
71.2796 28.4324 3.98599
69.8175 24.0609 3.98677
68.3509 26.9519 3.97831
66.7683 22.9314 3.98115
65.694 12.7746 4
65.3255 16.1001 3.98923
64.7197 19.1886 3.98369
63.8964 22.0285 3.97947
71.1327 54.0858 0
65.6939 62.2254 0
68.6801 58.3339 0
65.3141 59.0041 0.0112392
72.1455 51.8506 2
69.9759 56.25 2
68.839 53.1115 2
64.0165 64.0165 2
66.6133 57.1351 2
63.8877 60.7687 2
63.5055 57.7796 2
62.2254 65.694 4
58.8947 65.416 3.99265
69.7711 50.9877 3.98654
67.7861 55.1685 3.98787
66.6555 52.2111 3.98085
62.3374 62.43 3.9914
64.667 56.0373 3.98416
62.2066 59.4123 3.98458
61.8312 56.692 3.98172
58.3339 68.6801 4
60.3285 67.2508 2
73.7221 47.2057 0
74.6784 42.3946 0
74.9197 39.9526 2
74.2794 44.8159 2
72.1691 42.0857 2
73.0099 49.554 2
71.2508 46.5971 2
75 37.5 4
72.4059 39.8021 3.98363
71.7838 44.3524 3.98554
69.8069 41.7895 3.97709
70.577 48.8122 3.98635
68.9165 46.0146 3.97807
74.6792 32.6053 0
73.7222 27.7943 0
67.2507 14.6715 0
72.1454 23.1494 0
70.6158 26.2225 0.0138337
68.8879 21.9582 0.0127497
66.6391 17.9693 0.0117981
65.8032 21.0214 0.0175306
74.9197 35.0474 2
74.2794 30.1841 2
72.1858 32.9434 2
71.2796 28.4328 2
65.694 12.7745 2
65.3259 16.1001 2
69.8177 24.0621 2
68.3508 26.952 2
64.72 19.1877 2
66.7683 22.9311 2
63.8967 22.0277 2
72.4139 35.2241 3.984
71.8051 30.6767 3.98587
69.8431 33.2687 3.97757
68.97 29.0387 3.97811
67.6162 24.9117 3.9796
66.2003 27.6336 3.97527
64.0165 10.9835 4
64.7651 23.8257 3.97806
63.8915 14.3239 3.99035
63.5182 17.4387 3.98494
62.9163 20.3108 3.98055
62.1046 22.9337 3.97786
60.6847 11.0952 3.99188
57.6132 11.44 3.98697
72.1454 51.8506 0
69.9759 56.25 0
68.8387 53.1129 0.0130091
64.0165 64.0165 0
63.8874 60.7689 0.00991721
66.6128 57.136 0.0115613
63.5055 57.7788 0.0158435
62.2255 65.694 2
58.8949 65.4161 2
69.7712 50.9867 2
67.7865 55.1672 2
66.6554 52.2115 2
62.3377 62.4298 2
64.6671 56.0381 2
62.2066 59.4129 2
61.8312 56.6928 2
60.6695 63.9791 3.99209
57.0252 66.7368 3.99318
57.5588 63.6972 3.98745
67.5128 50.1774 3.97939
65.7086 54.1771 3.98285
64.5467 51.3899 3.97733
60.7755 60.9453 3.98548
62.8299 55.0774 3.98189
60.6644 58.1708 3.98177
60.3382 55.7992 3.98069
56.25 69.9759 4
58.3339 68.6801 2
60.3285 67.2507 0
58.9218 9.65354 3.99243
62.2254 9.30607 4
73.0099 49.554 0
74.2788 44.8158 0
71.2508 46.5971 0.0139367
72.1691 42.0854 0.0153822
74.9194 39.9526 0
75 37.5 2
72.4059 39.8024 2
71.7838 44.3527 2
69.807 41.7895 2
70.577 48.8116 2
68.9165 46.0146 2
72.4892 37.512 3.98339
70.0428 39.6572 3.97556
69.4341 43.9073 3.97788
67.6018 41.4983 3.97392
68.2706 48.1072 3.97856
66.7161 45.4413 3.9752
74.9197 35.0474 0
74.2794 30.1841 0
72.1858 32.9434 0.0148646
71.2796 28.4324 0.0140089
65.694 12.7746 0
65.3255 16.1001 0.0107671
69.8175 24.0609 0.0132281
68.3509 26.9519 0.0216923
66.7683 22.9314 0.0188452
64.7197 19.1886 0.0163144
63.8964 22.0285 0.0205338
72.4139 35.2241 2
71.8052 30.6768 2
69.8432 33.2688 2
68.97 29.0388 2
64.0165 10.9835 2
63.8917 14.3239 2
63.5185 17.4378 2
67.6161 24.9116 2
66.2003 27.6333 2
62.9167 20.3099 2
64.7652 23.8251 2
62.1049 22.9331 2
60.685 11.0953 2
57.6132 11.4393 2
70.0599 35.3922 3.97632
69.4709 31.1499 3.97818
67.6603 33.5905 3.97439
66.7778 29.6219 3.975
65.5311 25.697 3.97643
64.1532 28.2526 3.97431
62.3426 12.6522 3.99121
62.8674 24.6305 3.9766
62.2023 15.7762 3.98534
61.8216 18.6731 3.98201
61.2292 21.3295 3.97853
60.4391 23.7157 3.97734
59.2475 12.7713 3.98565
55.875 10.2266 3.98841
56.4066 13.1024 3.98381
69.7711 50.9877 0.0134558
62.2254 65.694 0
58.8947 65.416 0.00734543
67.7861 55.1685 0.0121279
66.6555 52.2111 0.0191508
62.3374 62.43 0.00860328
62.2066 59.4123 0.0154171
64.667 56.0373 0.0158395
61.8312 56.692 0.0182828
60.6698 63.9791 2
57.0255 66.7368 2
57.5586 63.6978 2
67.5126 50.1775 2
65.7087 54.1778 2
64.5466 51.3907 2
60.7755 60.9461 2
62.83 55.0783 2
60.6644 58.1716 2
60.3382 55.7999 2
55.0706 67.9336 3.99345
59.2208 62.3726 3.98612
55.805 64.9145 3.98885
56.3285 62.0983 3.98435
65.3396 49.4112 3.97605
63.7162 53.2996 3.97984
62.4528 50.6592 3.97555
59.3373 59.5677 3.98332
61.0893 54.3213 3.98093
59.2968 57.0264 3.9798
59.2536 55.1978 3.98128
48.1031 68.5817 3.99024
50.9484 69.9331 3.99386
54.0858 71.1327 4
56.25 69.976 2
58.3339 68.6801 0
57.0589 8.33341 3.99293
60.3285 7.74928 4
58.922 9.65348 2
62.2255 9.30602 2
70.577 48.8122 0.0136522
71.7838 44.3524 0.0144593
68.9165 46.0146 0.0219298
69.8069 41.7895 0.0229084
72.4059 39.8021 0.0163712
75 37.5 0
72.4892 37.5122 2
70.043 39.6573 2
69.4342 43.9073 2
67.6019 41.4985 2
68.2705 48.1072 2
66.7161 45.4416 2
70.1308 37.5216 3.9754
67.8369 39.5127 3.97235
67.2293 43.4711 3.97486
65.5616 41.2118 3.973
66.0757 47.4199 3.97563
64.6601 44.8516 3.97431
72.4139 35.2241 0.0159963
71.8051 30.6767 0.014132
69.8431 33.2687 0.0224288
68.97 29.0387 0.0218938
64.0165 10.9835 0
63.8915 14.3239 0.00965448
63.5182 17.4387 0.0150569
67.6162 24.9117 0.0203971
66.2003 27.6336 0.0247311
64.7651 23.8257 0.021936
62.9163 20.3108 0.0194467
62.1046 22.9337 0.0221404
60.6847 11.0952 0.0081239
57.6132 11.44 0.0130329
70.0601 35.3924 2
69.4709 31.15 2
67.6604 33.5904 2
66.778 29.6217 2
62.3429 12.6523 2
62.2024 15.7757 2
61.822 18.6722 2
65.5311 25.6966 2
64.1533 28.2524 2
61.2297 21.3287 2
62.8675 24.63 2
60.4394 23.7152 2
59.2475 12.7706 2
56.4065 13.1016 2
55.875 10.2259 2
67.8738 35.5476 3.97332
67.2711 31.6216 3.97518
65.7039 33.926 3.97318
64.6699 30.1896 3.97386
63.5465 26.4098 3.97498
62.2652 28.7731 3.97489
60.7772 14.2157 3.98523
61.0568 25.329 3.97596
60.618 17.116 3.98325
60.2323 19.8024 3.98013
59.6742 22.2443 3.97714
58.9926 24.3067 3.97772
54.038 9.13021 3.98902
57.9122 14.3211 3.98355
54.7876 12.0015 3.98502
55.3142 14.6329 3.98249
67.5128 50.1774 0.0206055
57.0252 66.7368 0.00681987
60.6695 63.9791 0.00791002
57.5588 63.6972 0.0125544
65.7086 54.1771 0.0171488
64.5467 51.3899 0.0226726
60.7755 60.9453 0.0145233
60.6644 58.1708 0.0182305
62.8299 55.0774 0.0181126
60.3382 55.7992 0.0193066
55.0709 67.9337 2
59.2207 62.3735 2
55.8049 64.9151 2
56.3284 62.0989 2
65.3395 49.4117 2
63.7163 53.3005 2
62.4528 50.6599 2
59.3372 59.5686 2
61.0894 54.3221 2
59.2969 57.027 2
59.2537 55.1985 2
53.0425 69.0014 3.99369
53.9671 66.0165 3.98946
57.8832 60.8795 3.9838
54.6846 63.2144 3.98553
55.2135 60.6264 3.98277
63.2038 48.6663 3.97455
61.7543 52.5851 3.97835
60.2861 50.029 3.97457
58.0234 58.2739 3.98125
59.3406 53.9614 3.98007
58.1359 55.8278 3.97789
50.1096 67.8597 3.99004
47.4637 66.5861 3.98796
46.0568 69.1613 3.99046
48.1031 68.5821 2
48.8026 70.7243 3.99403
50.9486 69.9332 2
51.8506 72.1454 4
54.0858 71.1327 2
56.25 69.9759 0
55.1031 7.13802 3.99315
58.3339 6.31992 4
57.0591 8.33328 2
60.3286 7.74926 2
58.9218 9.65354 0.00757146
62.2254 9.30607 0
68.2706 48.1072 0.0214395
69.4341 43.9073 0.0221156
66.7161 45.4413 0.0247993
67.6018 41.4983 0.0260788
70.0428 39.6572 0.0244419
72.4892 37.512 0.0166104
70.1308 37.5217 2
67.8371 39.5128 2
67.2294 43.4713 2
65.5618 41.2121 2
66.0756 47.4203 2
64.6602 44.852 2
67.9331 37.5222 3.97206
65.7908 39.3714 3.97138
65.1832 43.0281 3.97391
63.7625 40.9327 3.97261
63.9742 46.7208 3.97454
62.8164 44.2216 3.9749
70.0599 35.3922 0.0236808
69.4709 31.1499 0.0218165
67.6603 33.5905 0.0256092
66.7778 29.6219 0.0250021
62.3426 12.6522 0.00878937
62.2023 15.7762 0.0146602
61.8216 18.6731 0.0179894
65.5311 25.697 0.0235686
64.1532 28.2526 0.0256928
62.8674 24.6305 0.0233953
61.2292 21.3295 0.0214714
60.4391 23.7157 0.0226554
59.2475 12.7713 0.014347
56.4066 13.1024 0.016185
55.875 10.2266 0.0115928
67.8741 35.5475 2
67.2712 31.6214 2
65.7041 33.9257 2
64.6701 30.1893 2
60.7772 14.215 2
60.6181 17.1152 2
60.2328 19.8015 2
63.5466 26.4095 2
62.2654 28.7729 2
59.6747 22.2436 2
61.057 25.3285 2
58.993 24.3062 2
57.9121 14.3204 2
55.3141 14.6321 2
54.0379 9.1296 2
54.7876 12.0007 2
65.8807 35.6665 3.97224
65.1936 32.1518 3.97396
64.2913 34.2487 3.9732
62.6032 30.6317 3.97353
61.6605 27.0663 3.97417
60.8592 29.1337 3.97597
59.3136 15.6579 3.98362
59.3437 25.7853 3.97801
59.1302 18.3415 3.98214
58.751 20.8384 3.97815
58.2986 23.0768 3.97588
57.9827 24.6504 3.9782
52.1125 8.14894 3.98937
53.0584 11.0081 3.98605
56.6789 15.7294 3.98274
53.8106 13.6677 3.98333
54.3783 15.9838 3.98225
55.0706 67.9336 0.00654521
65.3396 49.4112 0.0239548
55.805 64.9145 0.0111549
59.2208 62.3726 0.0138799
56.3285 62.0983 0.0156469
63.7162 53.2996 0.0201604
62.4528 50.6592 0.0244502
59.3373 59.5677 0.0166814
59.2968 57.0264 0.0201996
61.0893 54.3213 0.0190672
59.2536 55.1978 0.0187181
53.0427 69.0014 2
53.9671 66.0169 2
57.8831 60.8801 2
54.6845 63.215 2
55.2134 60.6271 2
63.2038 48.6669 2
61.7544 52.586 2
60.2861 50.0297 2
58.0234 58.2747 2
59.3407 53.9621 2
58.1359 55.8284 2
52.0707 67.0028 3.98982
52.9536 64.2244 3.98659
[...]
POINT_DATA 3012
SCALARS Jp_lamdaP float 4
LOOKUP_TABLE default
1 1 1 1
1 1 1 1
1 1 1 1
0.999995 1 1 0.999995
1 1 1 1
1 1 1 1
0.999911 1 1 0.999911
1 1 1 1
1 1 1 1
1 1 1 1
1 1 1 1
0.999978 1 1 0.999978
0.999984 1 1 0.999984
0.999996 1 1 0.999996
1 1 1 1
0.999996 1 1 0.999996
1 1 1 1
1 1 1 1
0.999912 1 1 0.999912
1 1 1 1
0.999992 1 1 0.999992
0.999998 1 1 0.999998
0.999845 1 1 0.999845
0.999894 1 1 0.999894
1 1 1 1
0.999932 1 1 0.999932
0.999742 1 1 0.999742
1 1 1 1
1 1 1 1
1 1 1 1
1 1 1 1
0.999981 1 1 0.999981
0.999999 1 1 0.999999
1 1 1 1
0.999933 1 1 0.999933
1 1 1 1
0.999967 1 1 0.999967
0.999989 1 1 0.999989
0.999782 1 1 0.999782
1 1 1 1
1 1 1 1
0.999997 1 1 0.999997
1 1 1 1
0.999992 1 1 0.999992
0.999848 1 1 0.999848
1 1 1 1
0.999898 1 1 0.999898
0.999997 1 1 0.999997
1 1 1 1
1 1 1 1
0.999913 1 1 0.999913
0.999992 1 1 0.999992
0.999993 1 1 0.999993
1 1 1 1
0.999999 1 1 0.999999
0.999847 1 1 0.999847
0.999933 1 1 0.999933
0.999895 1 1 0.999895
0.999736 1 1 0.999736
1 1 1 1
0.999989 1 1 0.999989
0.999865 1 1 0.999865
0.99983 1 1 0.99983
0.999871 1 1 0.999871
0.999582 1 1 0.999582
0.999677 1 1 0.999677
1 1 1 1
0.999956 1 1 0.999956
0.999788 1 1 0.999788
0.999525 1 1 0.999525
1 1 1 1
1 1 1 1
1 1 1 1
0.999984 1 1 0.999984
1 1 1 1
1 1 1 1
0.999938 1 1 0.999938
1 1 1 1
0.99997 1 1 0.99997
0.999992 1 1 0.999992
0.999781 1 1 0.999781
1 1 1 1
1 1 1 1
0.999917 1 1 0.999917
0.999951 1 1 0.999951
0.99965 1 1 0.99965
0.999998 1 1 0.999998
0.999761 1 1 0.999761
0.999803 1 1 0.999803
0.999623 1 1 0.999623
1 1 1 1
1 1 1 1
1 1 1 1
1 1 1 1
1 1 1 1
0.999995 1 1 0.999995
0.999858 1 1 0.999858
0.999998 1 1 0.999998
0.999899 1 1 0.999899
1 1 1 1
0.999825 1 1 0.999825
0.999882 1 1 0.999882
0.999449 1 1 0.999449
0.999908 1 1 0.999908
0.999511 1 1 0.999511
0.999987 1 1 0.999987
0.999994 1 1 0.999994
1 1 1 1
0.999999 1 1 0.999999
0.999849 1 1 0.999849
0.999896 1 1 0.999896
0.999934 1 1 0.999934
0.99973 1 1 0.99973
1 1 1 1
0.999991 1 1 0.999991
0.999831 1 1 0.999831
0.999831 1 1 0.999831
1 1 1 1
0.999971 1 1 0.999971
0.999873 1 1 0.999873
0.999568 1 1 0.999568
0.999782 1 1 0.999782
0.999686 1 1 0.999686
0.999526 1 1 0.999526
0.999834 1 1 0.999834
0.999825 1 1 0.999825
0.999486 1 1 0.999486
0.999529 1 1 0.999529
0.999617 1 1 0.999617
0.999367 1 1 0.999367
1 1 1 1
0.999489 1 1 0.999489
0.999997 1 1 0.999997
0.999799 1 1 0.999799
0.99956 1 1 0.99956
0.999437 1 1 0.999437
1 1 1 1
0.999871 1 1 0.999871
1 1 1 1
1 1 1 1
0.999943 1 1 0.999943
1 1 1 1
0.999995 1 1 0.999995
0.999973 1 1 0.999973
0.99978 1 1 0.99978
1 1 1 1
1 1 1 1
0.999921 1 1 0.999921
0.999956 1 1 0.999956
0.999651 1 1 0.999651
0.999999 1 1 0.999999
0.999761 1 1 0.999761
0.999803 1 1 0.999803
0.999618 1 1 0.999618
1 1 1 1
1 1 1 1
0.999885 1 1 0.999885
0.99959 1 1 0.99959
0.999715 1 1 0.999715
0.999467 1 1 0.999467
0.999833 1 1 0.999833
0.999599 1 1 0.999599
0.999635 1 1 0.999635
0.999554 1 1 0.999554
1 1 1 1
1 1 1 1
1 1 1 1
1 1 1 1
1 1 1 1
1 1 1 1
1 1 1 1
0.999899 1 1 0.999899
0.999857 1 1 0.999857
1 1 1 1
1 1 1 1
0.999827 1 1 0.999827
0.999884 1 1 0.999884
0.999449 1 1 0.999449
0.999909 1 1 0.999909
0.999511 1 1 0.999511
0.999817 1 1 0.999817
0.999412 1 1 0.999412
0.999484 1 1 0.999484
0.999269 1 1 0.999269
0.999544 1 1 0.999544
0.999337 1 1 0.999337
1 1 1 1
0.999993 1 1 0.999993
0.999795 1 1 0.999795
0.999832 1 1 0.999832
1 1 1 1
0.999985 1 1 0.999985
0.999874 1 1 0.999874
0.999554 1 1 0.999554
0.999696 1 1 0.999696
0.999775 1 1 0.999775
0.999527 1 1 0.999527
0.999832 1 1 0.999832
0.999826 1 1 0.999826
0.999459 1 1 0.999459
0.999538 1 1 0.999538
1 1 1 1
0.999995 1 1 0.999995
0.999811 1 1 0.999811
0.999618 1 1 0.999618
0.999351 1 1 0.999351
0.999557 1 1 0.999557
0.999496 1 1 0.999496
0.999439 1 1 0.999439
1 1 1 1
0.999871 1 1 0.999871
0.999419 1 1 0.999419
0.999513 1 1 0.999513
0.999295 1 1 0.999295
0.999299 1 1 0.999299
0.999443 1 1 0.999443
0.999287 1 1 0.999287
1 1 1 1
0.999406 1 1 0.999406
0.999819 1 1 0.999819
0.999607 1 1 0.999607
0.999471 1 1 0.999471
0.999413 1 1 0.999413
0.999843 1 1 0.999843
0.999911 1 1 0.999911
0.999669 1 1 0.999669
0.999924 1 1 0.999924
1 1 1 1
1 1 1 1
0.999961 1 1 0.999961
0.999652 1 1 0.999652
1 1 1 1
0.999803 1 1 0.999803
0.999762 1 1 0.999762
0.999613 1 1 0.999613
1 1 1 1
1 1 1 1
0.999885 1 1 0.999885
0.999591 1 1 0.999591
0.999717 1 1 0.999717
0.999467 1 1 0.999467
0.999833 1 1 0.999833
0.999605 1 1 0.999605
0.999634 1 1 0.999634
0.999547 1 1 0.999547
1 1 1 1
0.999858 1 1 0.999858
0.999916 1 1 0.999916
0.999697 1 1 0.999697
0.999407 1 1 0.999407
0.999547 1 1 0.999547
0.999375 1 1 0.999375
0.999662 1 1 0.999662
0.999531 1 1 0.999531
0.999531 1 1 0.999531
0.999495 1 1 0.999495
0.999979 1 1 0.999979
1 1 1 1
1 1 1 1
1 1 1 1
1 1 1 1
1 1 1 1
1 1 1 1
1 1 1 1
1 1 1 1
0.999911 1 1 0.999911
0.999883 1 1 0.999883
0.999512 1 1 0.999512
0.999449 1 1 0.999449
0.999828 1 1 0.999828
1 1 1 1
0.999816 1 1 0.999816
0.999412 1 1 0.999412
0.999484 1 1 0.999484
0.999269 1 1 0.999269
0.999545 1 1 0.999545
0.999337 1 1 0.999337
0.999401 1 1 0.999401
0.999231 1 1 0.999231
0.999305 1 1 0.999305
0.999216 1 1 0.999216
0.999369 1 1 0.999369
0.999277 1 1 0.999277
0.99983 1 1 0.99983
0.999826 1 1 0.999826
0.999431 1 1 0.999431
0.999547 1 1 0.999547
1 1 1 1
0.999993 1 1 0.999993
0.999823 1 1 0.999823
0.999619 1 1 0.999619
0.999334 1 1 0.999334
0.999503 1 1 0.999503
0.999555 1 1 0.999555
0.99944 1 1 0.99944
1 1 1 1
0.999871 1 1 0.999871
0.999409 1 1 0.999409
0.999513 1 1 0.999513
0.999288 1 1 0.999288
0.999316 1 1 0.999316
0.999999 1 1 0.999999
0.999819 1 1 0.999819
0.999618 1 1 0.999618
0.999443 1 1 0.999443
0.999283 1 1 0.999283
0.999458 1 1 0.999458
0.999406 1 1 0.999406
0.999412 1 1 0.999412
0.999843 1 1 0.999843
0.999666 1 1 0.999666
0.99991 1 1 0.99991
0.999264 1 1 0.999264
0.999304 1 1 0.999304
0.999203 1 1 0.999203
0.999235 1 1 0.999235
0.999358 1 1 0.999358
0.99929 1 1 0.99929
0.99983 1 1 0.99983
0.999391 1 1 0.999391
0.999662 1 1 0.999662
0.999503 1 1 0.999503
0.999395 1 1 0.999395
0.999437 1 1 0.999437
0.999947 1 1 0.999947
0.999671 1 1 0.999671
0.999674 1 1 0.999674
0.999591 1 1 0.999591
0.999591 1 1 0.999591
1 1 1 1
1 1 1 1
0.999885 1 1 0.999885
0.999719 1 1 0.999719
0.999467 1 1 0.999467
0.999833 1 1 0.999833
0.999633 1 1 0.999633
0.999611 1 1 0.999611
0.99954 1 1 0.99954
1 1 1 1
0.999858 1 1 0.999858
0.999917 1 1 0.999917
0.999696 1 1 0.999696
0.999406 1 1 0.999406
0.999548 1 1 0.999548
0.999375 1 1 0.999375
0.999662 1 1 0.999662
0.999539 1 1 0.999539
0.999528 1 1 0.999528
0.999513 1 1 0.999513
1 1 1 1
0.999942 1 1 0.999942
0.999683 1 1 0.999683
0.999721 1 1 0.999721
0.999588 1 1 0.999588
0.999326 1 1 0.999326
0.999462 1 1 0.999462
0.999342 1 1 0.999342
0.999549 1 1 0.999549
0.999487 1 1 0.999487
0.999421 1 1 0.999421
0.99997 1 1 0.99997
0.99983 1 1 0.99983
0.999986 1 1 0.999986
0.999981 1 1 0.999981
1 1 1 1
1 1 1 1
1 1 1 1
1 1 1 1
1 1 1 1
1 1 1 1
1 1 1 1
1 1 1 1
1 1 1 1
1 1 1 1
1 1 1 1
0.999545 1 1 0.999545
0.999484 1 1 0.999484
0.999337 1 1 0.999337
0.999269 1 1 0.999269
0.999412 1 1 0.999412
0.999816 1 1 0.999816
0.999401 1 1 0.999401
0.999231 1 1 0.999231
0.999305 1 1 0.999305
0.999213 1 1 0.999213
0.999369 1 1 0.999369
0.999277 1 1 0.999277
0.999218 1 1 0.999218
0.99918 1 1 0.99918
0.999244 1 1 0.999244
0.999204 1 1 0.999204
0.999304 1 1 0.999304
0.9993 1 1 0.9993
0.999399 1 1 0.999399
0.999512 1 1 0.999512
0.999282 1 1 0.999282
0.999334 1 1 0.999334
0.999999 1 1 0.999999
0.999819 1 1 0.999819
0.999629 1 1 0.999629
0.999442 1 1 0.999442
0.999279 1 1 0.999279
0.999407 1 1 0.999407
0.999446 1 1 0.999446
0.999411 1 1 0.999411
0.999844 1 1 0.999844
0.999662 1 1 0.999662
0.99991 1 1 0.99991
0.999251 1 1 0.999251
0.999304 1 1 0.999304
0.999195 1 1 0.999195
0.999239 1 1 0.999239
0.99983 1 1 0.99983
0.999661 1 1 0.999661
0.999515 1 1 0.999515
0.999363 1 1 0.999363
0.999296 1 1 0.999296
0.999385 1 1 0.999385
0.999391 1 1 0.999391
0.999441 1 1 0.999441
0.999672 1 1 0.999672
0.999582 1 1 0.999582
0.999944 1 1 0.999944
0.999679 1 1 0.999679
0.99917 1 1 0.99917
0.999212 1 1 0.999212
0.999158 1 1 0.999158
0.999226 1 1 0.999226
0.999358 1 1 0.999358
0.999318 1 1 0.999318
0.999675 1 1 0.999675
0.999443 1 1 0.999443
0.999567 1 1 0.999567
0.999417 1 1 0.999417
0.999343 1 1 0.999343
0.99944 1 1 0.99944
0.999965 1 1 0.999965
0.999713 1 1 0.999713
0.999596 1 1 0.999596
0.999575 1 1 0.999575
0.999551 1 1 0.999551
1 1 1 1
0.999406 1 1 0.999406
0.999918 1 1 0.999918
0.999857 1 1 0.999857
0.999695 1 1 0.999695
0.99955 1 1 0.99955
0.999375 1 1 0.999375
0.999663 1 1 0.999663
0.999525 1 1 0.999525
0.999546 1 1 0.999546
0.99953 1 1 0.99953
1 1 1 1
0.999944 1 1 0.999944
0.999682 1 1 0.999682
0.999721 1 1 0.999721
0.999585 1 1 0.999585
0.999325 1 1 0.999325
0.999463 1 1 0.999463
0.999339 1 1 0.999339
0.999551 1 1 0.999551
0.999492 1 1 0.999492
0.99943 1 1 0.99943
0.999958 1 1 0.999958
0.999751 1 1 0.999751
0.999573 1 1 0.999573
0.999602 1 1 0.999602
0.999535 1 1 0.999535
0.999307 1 1 0.999307
0.999421 1 1 0.999421
0.999382 1 1 0.999382
0.999449 1 1 0.999449
0.999368 1 1 0.999368
0.999972 1 1 0.999972
0.999786 1 1 0.999786
0.999819 1 1 0.999819
0.999716 1 1 0.999716
0.999841 1 1 0.999841
0.99999 1 1 0.99999
0.999987 1 1 0.999987
1 1 1 1
0.999983 1 1 0.999983
1 1 1 1
1 1 1 1
1 1 1 1
1 1 1 1
1 1 1 1
1 1 1 1
1 1 1 1
1 1 1 1
1 1 1 1
1 1 1 1
1 1 1 1
0.999368 1 1 0.999368
0.999306 1 1 0.999306
0.999278 1 1 0.999278
0.99921 1 1 0.99921
0.999231 1 1 0.999231
0.9994 1 1 0.9994
0.999218 1 1 0.999218
0.999175 1 1 0.999175
0.999244 1 1 0.999244
0.999203 1 1 0.999203
0.999302 1 1 0.999302
0.9993 1 1 0.9993
0.999155 1 1 0.999155
0.99929 1.00013 1 0.999165
0.999241 1 1 0.999241
0.999195 1 1 0.999195
0.999309 1 1 0.999309
0.999321 1 1 0.999321
0.999237 1 1 0.999237
0.999304 1 1 0.999304
0.999187 1 1 0.999187
0.999242 1 1 0.999242
0.999831 1 1 0.999831
0.99966 1 1 0.99966
0.999528 1 1 0.999528
0.999368 1 1 0.999368
0.999302 1 1 0.999302
0.999392 1 1 0.999392
0.999375 1 1 0.999375
0.999446 1 1 0.999446
0.999673 1 1 0.999673
0.999573 1 1 0.999573
0.999942 1 1 0.999942
0.999684 1 1 0.999684
0.999171 1 1 0.999171
0.999214 1 1 0.999214
0.999158 1 1 0.999158
0.999227 1 1 0.999227
0.999675 1 1 0.999675
0.999577 1 1 0.999577
0.999416 1 1 0.999416
0.999354 1 1 0.999354
0.999342 1 1 0.999342
0.999338 1 1 0.999338
0.999445 1 1 0.999445
0.999456 1 1 0.999456
0.999596 1 1 0.999596
0.999548 1 1 0.999548
0.999573 1 1 0.999573
0.999948 1 1 0.999948
0.999719 1 1 0.999719
0.999136 1 1 0.999136
0.99915 1 1 0.99915
0.999247 1 1 0.999247
0.999395 1 1 0.999395
0.999605 1 1 0.999605
0.999494 1 1 0.999494
0.999501 1 1 0.999501
0.999306 1 1 0.999306
0.999298 1 1 0.999298
0.999949 1 1 0.999949
0.999779 1 1 0.999779
0.999608 1 1 0.999608
0.999568 1 1 0.999568
0.999499 1 1 0.999499
0.99952 1 1 0.99952
1 1 1 1
0.999945 1 1 0.999945
0.999323 1 1 0.999323
0.99972 1 1 0.99972
0.999682 1 1 0.999682
0.999581 1 1 0.999581
0.999463 1 1 0.999463
0.999336 1 1 0.999336
0.999552 1 1 0.999552
0.999438 1 1 0.999438
0.999497 1 1 0.999497
0.999961 1 1 0.999961
0.999751 1 1 0.999751
0.999579 1 1 0.999579
0.999601 1 1 0.999601
0.999528 1 1 0.999528
0.999306 1 1 0.999306
0.999418 1 1 0.999418
0.999387 1 1 0.999387
0.999442 1 1 0.999442
0.999353 1 1 0.999353
0.999779 1 1 0.999779
0.999608 1 1 0.999608
0.999499 1 1 0.999499
0.999516 1 1 0.999516
0.999484 1 1 0.999484
0.999418 1 1 0.999418
0.999343 1 1 0.999343
0.999372 1 1 0.999372
0.999395 1 1.00002 0.999373
0.999233 1 1 0.999233
0.999975 1 1 0.999975
0.999795 1 1 0.999795
0.999659 1 1 0.999659
0.999808 1 1 0.999808
0.999841 1 1 0.999841
0.9997 1 1 0.9997
0.999615 1 1 0.999615
0.999696 1 1 0.999696
0.99985 1 1 0.99985
0.999992 1 1 0.999992
0.999991 1 1 0.999991
1 1 1 1
0.999988 1 1 0.999988
1 1 1 1
1 1 1 1
1 1 1 1
1 1 1 1
1 1 1 1
1 1 1 1
1 1 1 1
1 1 1 1
1 1 1 1
1 1 1 1
1 1 1 1
0.999301 1 1 0.999301
0.999245 1 1 0.999245
0.999299 1 1 0.999299
0.999201 1 1 0.999201
0.999169 1 1 0.999169
0.999218 1 1 0.999218
0.999153 1 1 0.999153
0.999244 1.00008 1 0.999167
0.999235 1 1 0.999235
0.999189 1 1 0.999189
0.999309 1 1 0.999309
0.999335 1 1 0.999335
0.999406 1.00026 1 0.999141
0.999375 1.0002 1 0.999175
0.999238 1 1 0.999238
0.999384 1 1 0.999384
0.999172 1 1 0.999172
0.999217 1 1 0.999217
0.999158 1 1 0.999158
0.999229 1 1 0.999229
0.999675 1 1 0.999675
0.999587 1 1 0.999587
0.999416 1 1 0.999416
0.999349 1 1 0.999349
0.999367 1 1 0.999367
0.999446 1 1 0.999446
0.999332 1 1 0.999332
0.999472 1 1 0.999472
0.999596 1 1 0.999596
0.999545 1 1 0.999545
0.999571 1 1 0.999571
0.999932 1 1 0.999932
0.999725 1 1 0.999725
0.999138 1 1 0.999138
0.999155 1 1 0.999155
0.999256 1 1 0.999256
0.999604 1 1 0.999604
0.999514 1 1 0.999514
0.999303 1 1 0.999303
0.999385 1 1 0.999385
0.999322 1 1 0.999322
0.999491 1 1 0.999491
0.999949 1 1 0.999949
0.999568 1 1 0.999568
0.999527 1 1 0.999527
0.999499 1 1 0.999499
0.999613 1 1 0.999613
0.999767 1 1 0.999767
0.999145 1.00001 1 0.999132
0.999139 1 1 0.999139
0.999314 1.00002 1 0.999296
0.999508 1.00005 1 0.999461
0.999562 1 1 0.999562
0.999365 1 1 0.999365
0.999381 1 1 0.999381
0.999257 1 1.00004 0.999218
0.999962 1 1 0.999962
0.999813 1 1 0.999813
0.999651 1 1 0.999651
0.99949 1 1 0.99949
0.999529 1 1 0.999529
0.999469 1 1 0.999469
0.999963 1 1 0.999963
0.999751 1 1 0.999751
0.999304 1 1 0.999304
0.9996 1 1 0.9996
0.999585 1 1 0.999585
0.99952 1 1 0.99952
0.999415 1 1 0.999415
0.999392 1 1 0.999392
0.999436 1 1 0.999436
0.999339 1 1 0.999339
0.99978 1 1 0.99978
0.999612 1 1 0.999612
0.999509 1 1 0.999509
0.999521 1 1 0.999521
0.999488 1 1 0.999488
0.999418 1 1 0.999418
0.999348 1 1 0.999348
0.999409 1 1 0.999409
0.999366 1 1 0.999364
0.999215 1 1 0.999215
0.999636 1 1 0.999636
0.999506 1 1 0.999506
0.999431 1 1 0.999429
0.999443 1 1 0.999443
0.99957 1.00018 1 0.999391
0.999767 1.00045 0.999872 0.999446
0.99922 1 1 0.99922
1.00058 1 1.00138 0.999201
0.999803 1 1 0.999803
0.999666 1 1 0.999666
0.999581 1 1 0.999581
0.999841 1 1 0.999841
0.999683 1 1 0.999683
0.99985 1 1 0.99985
0.999602 1 1 0.999602
0.999702 1 1 0.999702
0.999535 1 1 0.999535
0.999601 1 1 0.999601
0.999705 1 1 0.999705
0.999855 1 1 0.999855
0.999992 1 1 0.999992
0.999992 1 1 0.999992
1 1 1 1
0.999991 1 1 0.999991
1 1 1 1
1 1 1 1
1 1 1 1
1 1 1 1
1 1 1 1
1 1 1 1
1 1 1 1
1 1 1 1
1 1 1 1
1 1 1 1
1 1 1 1
0.999309 1 1 0.999309
0.999229 1 1 0.999229
0.99935 1 1 0.99935
0.999184 1 1 0.999184
0.999174 1.00001 1 0.999169
0.99915 1 1 0.99915
0.999336 1.00019 1 0.999145
0.999343 1.00017 1 0.999175
0.999245 1 1 0.999245
0.999379 1 1 0.999379
0.999514 1.00036 1 0.999156
0.999505 1.00029 1 0.999211
0.999306 1 1 0.999306
0.999139 1 1 0.999139
0.99916 1 1 0.99916
0.999269 1 1 0.999265
0.999603 1 1 0.999603
0.999527 1 1 0.999527
0.9993 1 1 0.9993
0.999376 1 1 0.999376
0.999488 1 1 0.999488
0.999346 1 1 0.999346
0.999567 1 1 0.999567
0.999535 1 1 0.999535
0.999498 1 1 0.999498
0.99995 1 1 0.99995
0.999618 1 1 0.999618
0.999755 1 1 0.999755
0.99921 1.00008 1 0.999135
0.999137 1 1 0.999137
0.999294 1.00001 1 0.999284
0.99956 1 1 0.99956
0.999401 1 1 0.999401
0.999291 1 1.00007 0.999223
0.999764 1.00029 1 0.99947
0.999363 1 1 0.999363
0.999974 1 1 0.999974
0.999813 1 1 0.999813
0.999529 1 1 0.999529
0.999475 1 1 0.999475
0.999495 1 1 0.999495
0.999642 1 1 0.999642
0.999322 1.00017 1 0.999155
0.999337 1.00018 1 0.999154
1.00007 1.00075 0.999905 0.999414
1.0003 1.00083 1 0.999477
0.999497 1 1 0.999497
1.00044 1 1.00127 0.99917
0.999382 1 1.00009 0.999292
0.999995 1 1 0.999995
0.999879 1 1 0.999879
0.999816 1 1 0.999816
0.999664 1 1 0.999664
0.999529 1 1 0.999529
0.999415 1 1 0.999415
0.99951 1 1 0.99951
0.999448 1 1 0.999448
0.99978 1 1 0.99978
0.999617 1 1 0.999617
0.999418 1 1 0.999418
0.999526 1 1 0.999526
0.999519 1 1 0.999519
0.999492 1 1 0.999492
0.999352 1 1 0.999352
0.999447 1 1 0.999447
0.999356 1 1 0.999356
0.999198 1 1 0.999198
0.999632 1 1 0.999632
0.999514 1 1 0.999514
0.999449 1 1.00001 0.999438
0.99945 1 1 0.99945
0.999471 1.00009 1 0.999385
0.999612 1.00022 0.999949 0.999444
0.999238 1 1 0.999238
1.00022 1 1.00102 0.999193
0.999552 1 1 0.999552
0.999353 1.00005 1 0.999306
0.999443 1 1 0.999443
0.999497 1 1.00015 0.999347
1.00092 1.00177 0.999722 0.999429
0.999582 1.00038 1 0.999203
1.00133 1 1.00221 0.999122
0.999674 1 1 0.999674
0.999581 1 1 0.999581
0.999509 1 1 0.999509
0.99985 1 1 0.99985
0.999708 1 1 0.999708
0.99959 1 1 0.99959
0.999855 1 1 0.999855
0.999704 1 1 0.999704
0.999525 1 1 0.999525
0.999613 1 1 0.999613
0.999477 1 1 0.999477
0.999522 1 1 0.999522
0.999624 1 1 0.999624
0.999723 1 1 0.999723
0.999855 1 1 0.999855
0.999992 1 1 0.999992
0.999992 1 1 0.999992
1 1 1 1
0.999992 1 1 0.999992
1 1 1 1
1 1 1 1
1 1 1 1
1 1 1 1
1 1 1 1
0.999999 1 1 0.999999
1 1 1 1
1 1 1 1
1 1 1 1
1 1 1 1
1 1 1 1
1 1 1 1
0.999374 1 1 0.999374
0.999251 1 1 0.999251
0.999326 1.00015 1 0.999174
0.99929 1.00014 1 0.999149
0.999535 1.00037 1 0.999161
0.999521 1.00032 1 0.999204
0.999319 1 1 0.999319
0.999634 1.00044 1 0.999196
0.999428 1.00019 1 0.999238
0.999393 1.00007 1 0.999326
0.999268 1.00013 1 0.999138
0.999135 1 1 0.999135
0.999272 1 1 0.999272
0.999558 1 1 0.999558
0.99942 1 1 0.99942
0.999231 1 1 0.999229
0.999987 1.00051 1 0.999479
0.999362 1 1 0.999362
0.999528 1 1 0.999528
0.99948 1 1 0.99948
0.9995 1 1 0.9995
0.999985 1 1 0.999985
0.999813 1 1 0.999813
0.999633 1 1 0.999633
0.999282 1.00012 1 0.999158
0.999993 1 1 0.999993
0.999871 1 1 0.999871
0.999406 1.00025 1 0.999155
1.00028 1.00089 1 0.999392
0.999507 1 1 0.999507
0.999767 1 1.0005 0.999272
0.999771 1 1.0006 0.999176
0.999994 1.00052 1 0.999476
0.999839 1 1 0.999839
0.999663 1 1 0.999663
0.999506 1 1 0.999506
0.999472 1 1 0.999472
0.999401 1 1 0.999401
0.999531 1 1 0.999531
0.999757 1.00057 1 0.999189
1.00041 1.00118 1 0.999237
1.00126 1.00212 0.999601 0.999543
0.999285 1 1 0.999285
0.999798 1 1.00034 0.999455
1.00208 1 1.00294 0.999144
0.999879 1 1 0.999879
0.999859 1 1 0.999859
0.999764 1 1 0.999764
0.999669 1 1 0.999669
0.999565 1 1 0.999565
0.999432 1 1 0.999432
0.999342 1 1 0.999342
0.999476 1 1 0.999476
0.999628 1 1 0.999628
0.999522 1 1 0.999522
0.999378 1 1 0.999378
0.999442 1 1 0.999441
0.999457 1 1 0.999457
0.999446 1 1 0.999446
0.999256 1 1 0.999256
0.999889 1 1.0007 0.999185
0.999552 1 1 0.999552
0.999342 1.00002 1 0.999321
0.999444 1 1 0.999444
0.99968 1 1.00035 0.999334
1.00029 1.00113 0.999746 0.999421
0.999804 1.0006 1 0.999207
1.00119 1 1.00207 0.999122
0.999468 1 1 0.999468
1.00709 1.00828 0.999451 0.999363
0.999386 1 1 0.999386
1.00086 1 1.00164 0.999221
0.998246 1.0018 0.997225 0.999228
1.001 1 1.00192 0.999076
1.00608 1.00884 0.998014 0.999252
0.999581 1 1 0.999581
0.999508 1 1 0.999508
0.999458 1 1 0.999458
0.999855 1 1 0.999855
0.999703 1 1 0.999703
0.999626 1 1 0.999626
0.999516 1 1 0.999516
0.999855 1 1 0.999855
0.999715 1 1 0.999715
0.999474 1 1 0.999474
0.999624 1 1 0.999624
0.999532 1 1 0.999532
0.999455 1 1 0.999455
0.999558 1 1 0.999558
0.999633 1 1 0.999633
0.999704 1 1 0.999704
0.999832 1 1 0.999832
0.999741 1 1 0.999741
0.999832 1 1 0.999832
0.999991 1 1 0.999991
0.999991 1 1 0.999991
1 1 1 1
0.999992 1 1 0.999992
1 1 1 1
1 1 1 1
1 1 1 1
1 1 1 1
1 1 1 1
1 1 1 1
0.999998 1 1 0.999998
1 1 1 1
1 1 1 1
1 1 1 1
1 1 1 1
1 1 1 1
1 1 1 1
0.999333 1 1 0.999333
0.99955 1.00035 1 0.999196
0.999547 1.00038 1 0.999166
0.99965 1.00046 1 0.999195
0.99952 1.00028 1 0.999244
0.999367 1.00003 1 0.999335
1.00013 1.00086 1 0.999264
1.00437 1.00967 0.995308 0.999441
1.00624 1.00711 0.999705 0.999431
0.999909 1 1 0.999909
0.999258 1.0001 1 0.999161
0.999476 1.00032 1 0.999155
1.00041 1.00104 1 0.999369
0.999517 1 1 0.999517
1.00035 1 1.0011 0.999252
0.9993 1 1.00012 0.999183
0.9997 1.00023 1 0.999475
0.999502 1 1 0.999502
0.999496 1 1 0.999496
0.999387 1 1 0.999387
0.999991 1 1 0.999991
0.999533 1 1 0.999533
0.999862 1 1 0.999862
0.999662 1 1 0.999662
0.999862 1 1 0.999862
0.999642 1.00046 1 0.999185
0.999889 1 1 0.999889
0.999859 1 1 0.999859
0.999746 1 1 0.999746
1.00065 1.00141 1 0.999241
1.00047 1.00149 0.999469 0.999514
0.999712 1 1.00025 0.999461
1.00229 1 1.00316 0.999135
0.999452 1 1.00016 0.99929
0.999682 1 1 0.999682
0.99956 1 1 0.99956