# vtk DataFile Version 2.0
Wound Healing Simulation
ASCII
DATASET UNSTRUCTURED_GRID
POINTS 3012 float
69.9759 18.75 4
67.2507 60.3285 4
69.976 18.75 2
73.0099 25.446 4
71.1327 20.9142 4
68.6801 16.6661 4
67.822 19.9262 3.97476
67.2507 60.3286 2
71.1327 54.0858 4
68.6801 58.3339 4
65.6939 62.2254 4
65.3089 58.999 3.97312
74.6784 42.3946 4
73.7221 47.2057 4
69.9759 18.75 0
73.0099 25.446 2
68.6801 16.6661 2
71.1327 20.9142 2
67.8228 19.9303 2
74.6792 32.6053 4
73.7222 27.7943 4
72.1454 23.1494 4
70.6116 26.2215 3.97457
68.8824 21.9578 3.97514
67.2507 14.6715 4
66.6333 17.9729 3.9735
65.7772 21.032 3.96332
67.2507 60.3285 0
71.1327 54.0858 2
68.6801 58.3339 2
65.694 62.2255 2
65.3098 58.9945 2
72.1454 51.8506 4
69.9759 56.25 4
68.833 53.1137 3.9747
64.0165 64.0165 4
66.6071 57.1327 3.9745
63.8821 60.7631 3.97279
63.4916 57.7637 3.96482
60.3285 67.2507 4
74.6792 42.3947 2
73.7222 47.2057 2
74.9194 39.9526 4
74.2788 44.8158 4
72.1663 42.0857 3.97598
73.0099 49.554 4
71.2468 46.5981 3.97445
73.0099 25.446 0
71.1327 20.9142 0
68.6801 16.6661 0
67.822 19.9262 0.0252431
74.6792 32.6053 2
73.7222 27.7943 2
67.2508 14.6715 2
72.1455 23.1494 2
70.6111 26.2224 2
66.6347 17.9777 2
68.8828 21.9608 2
65.7745 21.0343 2
74.9197 35.0474 4
74.2794 30.1841 4
72.1831 32.9444 3.97641
71.276 28.4323 3.9749
69.8126 24.0596 3.97486
68.3369 26.9556 3.96416
66.7453 22.9388 3.96354
65.694 12.7746 4
65.3193 16.1058 3.97162
64.6978 19.2027 3.96315
63.782 22.0761 3.96426
71.1327 54.0858 0
65.6939 62.2254 0
68.6801 58.3339 0
65.3089 58.999 0.0268756
72.1455 51.8506 2
69.9759 56.25 2
68.8332 53.111 2
64.0165 64.0165 2
66.6083 57.1285 2
63.8834 60.758 2
63.4894 57.7635 2
62.2254 65.694 4
58.8915 65.4127 3.98249
69.7658 50.9896 3.97442
67.7802 55.1674 3.97482
66.6275 52.2043 3.96361
62.3324 62.4245 3.9766
64.6494 56.0266 3.9639
62.1949 59.3906 3.96477
61.7584 56.6477 3.96112
58.3339 68.6801 4
60.3285 67.2508 2
73.7221 47.2057 0
74.6784 42.3946 0
74.9197 39.9526 2
74.2794 44.8159 2
72.1655 42.0855 2
73.0099 49.554 2
71.2462 46.5976 2
75 37.5 4
72.4037 39.8025 3.97717
71.7804 44.3531 3.97578
69.7984 41.7898 3.96661
70.5723 48.8139 3.97416
68.9026 46.0131 3.96529
74.6792 32.6053 0
73.7222 27.7943 0
67.2507 14.6715 0
72.1454 23.1494 0
70.6116 26.2215 0.0254325
68.8824 21.9578 0.02486
66.6333 17.9729 0.0265037
65.7772 21.032 0.036683
74.9197 35.0474 2
74.2794 30.1841 2
72.1823 32.9447 2
71.2755 28.4327 2
65.694 12.7745 2
65.3209 16.111 2
69.8124 24.0614 2
68.3389 26.9566 2
64.6916 19.2053 2
66.7453 22.9407 2
63.7813 22.0771 2
72.4116 35.225 3.97723
71.802 30.6774 3.97589
69.8347 33.2715 3.96664
68.9599 29.0418 3.96502
67.5983 24.9167 3.96377
66.0752 27.6662 3.96878
64.0165 10.9835 4
64.6438 23.8684 3.96592
63.8854 14.3308 3.97206
63.5024 17.4575 3.96307
62.8078 20.3641 3.96232
61.8905 23.0207 3.96881
60.6806 11.102 3.97747
57.6049 11.4767 3.96874
72.1454 51.8506 0
69.9759 56.25 0
68.833 53.1137 0.0252962
64.0165 64.0165 0
63.8821 60.7631 0.027207
66.6071 57.1327 0.025495
63.4916 57.7637 0.0351784
62.2255 65.694 2
58.8937 65.4085 2
69.7656 50.9878 2
67.7808 55.1636 2
66.627 52.2029 2
62.3346 62.4195 2
64.6434 56.0249 2
62.192 59.3904 2
61.7573 56.6481 2
60.6657 63.9733 3.97919
57.0223 66.7335 3.98522
57.5515 63.6721 3.971
67.4867 50.1724 3.96399
65.6842 54.1685 3.96364
64.4075 51.3472 3.9661
60.7672 60.9172 3.96785
62.7317 55.0327 3.96338
60.6111 58.1245 3.95987
60.1989 55.7244 3.96485
56.25 69.9759 4
58.3339 68.6801 2
60.3285 67.2507 0
58.9179 9.66005 3.97881
62.2254 9.30607 4
73.0099 49.554 0
74.2788 44.8158 0
71.2468 46.5981 0.0255513
72.1663 42.0857 0.024017
74.9194 39.9526 0
75 37.5 2
72.4035 39.8025 2
71.7802 44.3525 2
69.7976 41.7896 2
70.5718 48.813 2
68.905 46.0127 2
72.4871 37.5126 3.97678
70.0361 39.6582 3.9671
69.4247 43.9071 3.96631
67.4906 41.4877 3.97347
68.2488 48.1039 3.96451
66.5763 45.4155 3.97102
74.9197 35.0474 0
74.2794 30.1841 0
72.1831 32.9444 0.0235876
71.276 28.4323 0.0250984
65.694 12.7746 0
65.3193 16.1058 0.0283828
69.8126 24.0596 0.0251368
68.3369 26.9556 0.0358414
66.7453 22.9388 0.0364619
64.6978 19.2027 0.0368528
63.782 22.0761 0.0357446
72.4114 35.225 2
71.8017 30.6779 2
69.8339 33.2721 2
68.9596 29.0426 2
64.0165 10.9835 2
63.8874 14.3362 2
63.4992 17.459 2
67.5995 24.9181 2
66.0742 27.6671 2
62.8062 20.365 2
64.6425 23.8696 2
61.8894 23.0217 2
60.6833 11.1067 2
57.6058 11.4698 2
70.0529 35.3944 3.96717
69.4613 31.1529 3.96569
67.5551 33.6046 3.97255
66.6546 29.6492 3.96993
65.407 25.7346 3.96753
63.9021 28.3168 3.97561
62.3375 12.659 3.97561
62.6358 24.7109 3.9712
62.1892 15.8018 3.965
61.7312 18.7299 3.96009
61.0264 21.4241 3.96564
60.1315 23.8393 3.97282
59.2386 12.811 3.96558
55.8678 10.2611 3.97251
56.3927 13.175 3.96934
69.7658 50.9896 0.0255766
62.2254 65.694 0
58.8915 65.4127 0.0175121
67.7802 55.1674 0.0251795
66.6275 52.2043 0.0363944
62.3324 62.4245 0.0233977
62.1949 59.3906 0.035226
64.6494 56.0266 0.0360999
61.7584 56.6477 0.0388827
60.6679 63.9703 2
57.025 66.7308 2
57.5524 63.6765 2
67.4877 50.1713 2
65.681 54.1669 2
64.4068 51.3467 2
60.7654 60.9188 2
62.7304 55.0327 2
60.6133 58.1262 2
60.1974 55.7244 2
55.0681 67.9311 3.98728
59.2127 62.3358 3.96832
55.7999 64.8992 3.9735
56.3151 62.0423 3.97156
65.191 49.3723 3.96757
63.591 53.2543 3.96465
62.1887 50.5795 3.97023
59.3122 59.5229 3.96075
60.9014 54.2422 3.96746
59.1681 56.9459 3.96123
59.0564 55.1021 3.96796
48.0994 68.5734 3.98313
50.9459 69.9311 3.98935
54.0858 71.1327 4
56.25 69.976 2
58.3339 68.6801 0
57.0554 8.33898 3.98122
60.3285 7.74928 4
58.9211 9.66416 2
62.2255 9.30602 2
70.5723 48.8139 0.0258395
71.7804 44.3531 0.0242246
68.9026 46.0131 0.0347143
69.7984 41.7898 0.03339
72.4037 39.8025 0.022831
75 37.5 0
72.4864 37.5126 2
70.0359 39.6582 2
69.424 43.9065 2
67.4884 41.4875 2
68.251 48.1031 2
66.5746 45.4149 2
70.1242 37.5232 3.9672
67.7359 39.5089 3.97358
67.1008 43.453 3.97208
65.3047 41.1868 3.97635
65.9276 47.3868 3.96954
64.3757 44.7983 3.97629
72.4116 35.225 0.0227697
71.802 30.6774 0.0241148
69.8347 33.2715 0.0333602
68.9599 29.0418 0.0349825
64.0165 10.9835 0
63.8854 14.3308 0.0279417
63.5024 17.4575 0.0369326
67.5983 24.9167 0.0362338
66.0752 27.6662 0.0312231
64.6438 23.8684 0.0340807
62.8078 20.3641 0.037677
61.8905 23.0207 0.0311889
60.6806 11.102 0.0225348
57.6049 11.4767 0.0312552
70.0527 35.3947 2
69.461 31.1536 2
67.5531 33.6051 2
66.6524 29.65 2
62.3401 12.6643 2
62.1873 15.803 2
61.7298 18.7305 2
65.4056 25.7358 2
63.8998 28.3182 2
61.0254 21.4249 2
62.6341 24.7121 2
60.1296 23.8407 2
59.239 12.8116 2
56.3941 13.1726 2
55.8702 10.2597 2
67.7741 35.5555 3.97304
67.1592 31.6423 3.97166
65.4614 33.9536 3.97667
64.4121 30.2446 3.97621
63.3041 26.4823 3.97357
61.8985 28.87 3.97591
60.7674 14.2475 3.966
60.7246 25.4458 3.97513
60.5594 17.1721 3.95934
60.0415 19.9041 3.96194
59.3781 22.3771 3.96849
58.6103 24.4634 3.97444
54.0333 9.14926 3.97191
57.8944 14.3813 3.96385
54.7744 12.0736 3.96717
55.2897 14.7234 3.96382
67.4867 50.1724 0.0360104
57.0223 66.7335 0.0147799
60.6657 63.9733 0.0208061
57.5515 63.6721 0.0290033
65.6842 54.1685 0.0363642
64.4075 51.3472 0.0339007
60.7672 60.9172 0.0321492
60.6111 58.1245 0.0401303
62.7317 55.0327 0.0366242
60.1989 55.7244 0.0351466
55.0707 67.929 2
59.2125 62.3388 2
55.8007 64.8975 2
56.3137 62.0424 2
65.1897 49.3715 2
63.5908 53.2541 2
62.1879 50.5789 2
59.3139 59.5267 2
60.9013 54.2422 2
59.1744 56.9476 2
59.0611 55.103 2
53.0401 68.9992 3.98874
53.9628 66.0039 3.97742
57.8661 60.8311 3.96824
54.672 63.1694 3.97075
55.1919 60.5619 3.97519
62.9237 48.593 3.97252
61.5235 52.5037 3.96874
59.9061 49.9137 3.97286
57.9459 58.206 3.96049
59.0872 53.856 3.96974
57.9112 55.7176 3.96315
50.106 67.8511 3.98206
47.4599 66.5687 3.97755
46.0535 69.1529 3.98454
48.1006 68.5731 2
48.7999 70.7224 3.9899
50.948 69.9302 2
51.8506 72.1454 4
54.0858 71.1327 2
56.25 69.9759 0
55.1004 7.14331 3.98496
58.3339 6.31992 4
57.0587 8.34263 2
60.3286 7.74926 2
58.9179 9.66005 0.0211914
62.2254 9.30607 0
68.2488 48.1039 0.0354933
69.4247 43.9071 0.0336904
66.5763 45.4155 0.0289787
67.4906 41.4877 0.0265326
70.0361 39.6582 0.0329028
72.4871 37.5126 0.0232182
70.1235 37.5233 2
67.7335 39.5088 2
67.0994 43.4527 2
65.3017 41.1863 2
65.9264 47.3861 2
64.3742 44.7975 2
67.8363 37.5244 3.97341
65.5443 39.3607 3.97655
64.9152 42.9867 3.97658
63.3955 40.8978 3.97657
63.6842 46.6564 3.97466
62.4111 44.143 3.97621
70.0529 35.3944 0.0328345
69.4613 31.1529 0.0343062
67.5551 33.6046 0.0274506
66.6546 29.6492 0.0300721
62.3375 12.659 0.0243852
62.1892 15.8018 0.0350047
61.7312 18.7299 0.0399059
65.407 25.7346 0.0324656
63.9021 28.3168 0.0243916
62.6358 24.7109 0.0287979
61.0264 21.4241 0.0343622
60.1315 23.8393 0.0271801
59.2386 12.811 0.034417
56.3927 13.175 0.0306593
55.8678 10.2611 0.0274901
67.7715 35.5558 2
67.1577 31.6429 2
65.4575 33.9543 2
64.4093 30.2459 2
60.7668 14.2487 2
60.555 17.1729 2
60.0395 19.9051 2
63.3021 26.4836 2
61.8964 28.8707 2
59.3794 22.3778 2
60.7224 25.4472 2
58.6077 24.465 2
57.8931 14.3821 2
55.2913 14.7199 2
54.0359 9.14884 2
54.7752 12.0704 2
65.6429 35.6819 3.97657
64.9345 32.1939 3.97628
63.9646 34.2824 3.97646
62.2157 30.7091 3.9761
61.3092 27.1746 3.97565
60.4131 29.2501 3.97618
59.2837 15.7134 3.95974
58.9235 25.9415 3.97608
58.9916 18.4392 3.95984
58.4803 20.9773 3.96373
57.9319 23.2417 3.96994
57.564 24.8285 3.97542
52.1091 8.16425 3.9759
53.0473 11.0619 3.96914
56.6415 15.8136 3.95937
53.7878 13.7624 3.96675
54.3274 16.0948 3.96012
55.0681 67.9311 0.0127232
65.191 49.3723 0.0324256
55.7999 64.8992 0.0264954
59.2127 62.3358 0.0316814
56.3151 62.0423 0.028437
63.591 53.2543 0.0353521
62.1887 50.5795 0.0297677
59.3122 59.5229 0.039245
59.1681 56.9459 0.0387665
60.9014 54.2422 0.0325404
59.0564 55.1021 0.0320431
53.0425 68.998 2
53.964 66.0032 2
57.8651 60.8323 2
54.6713 63.1707 2
55.1894 60.5618 2
62.9221 48.5921 2
61.5239 52.5036 2
59.9072 49.9134 2
57.944 58.2073 2
59.0914 53.8565 2
57.9073 55.7161 2
52.0671 66.993 3.98066
52.9459 64.1975 3.97477
56.6152 59.4398 3.96353
[...]
POINT_DATA 3012
SCALARS rho_c_phif_kappa float 4
LOOKUP_TABLE default
1000 0 1.00209 0.270004
1000 0 1.0017 0.270371
1000 0 1.00209 0.270091
1000 0 1.00208 0.270455
1000 0 1.00208 0.270119
1000 0 1.00209 0.269989
1010.88 1.20182e-08 1.00243 0.268784
1000 0 1.0017 0.270403
1000 0 1.0017 0.270924
1000 0 1.0017 0.270583
1000 0 1.00209 0.269925
1010.83 1.17778e-08 1.00263 0.268849
1000 0 1.00207 0.270892
1000 0 1.00208 0.271625
1000 0 1.00209 0.270158
1000 0 1.00208 0.270921
1000 0 1.00209 0.269962
1000 0 1.00208 0.270347
1010.77 1.20521e-08 1.00243 0.268782
1000 0 1.00169 0.270957
1000 0 1.00208 0.270574
1000 0 1.00208 0.270288
1010.83 1.21551e-08 1.00242 0.26971
1010.86 1.20732e-08 1.00243 0.269111
1000 0 1.00209 0.270071
1010.9 1.19641e-08 1.00243 0.268443
1011.88 1.36393e-08 1.00277 0.265047
1000 0 1.0017 0.270462
1000 0 1.00189 0.270558
1000 0 1.00189 0.27027
1000 0 1.0017 0.270593
1010.83 1.18197e-08 1.00263 0.268757
1000 0 1.00208 0.270312
1000 0 1.00208 0.269851
1010.87 1.2095e-08 1.00243 0.26882
1000 0 1.0017 0.271142
1010.83 1.18724e-08 1.00243 0.268838
1010.88 1.17306e-08 1.00263 0.268784
1011.9 1.36116e-08 1.00278 0.265127
1000 0 1.0017 0.271369
1000 0 1.0017 0.270958
1000 0 1.00189 0.271243
1000 0 1.0017 0.271001
1000 0 1.00208 0.27175
1010.78 1.21778e-08 1.00261 0.269778
1000 0 1.0017 0.27151
1010.85 1.2212e-08 1.00242 0.269377
1000 0 1.00208 0.271419
1000 0 1.00208 0.270577
1000 0 1.00209 0.269913
1010.88 1.20182e-08 1.00243 0.268778
1000 0 1.00189 0.271273
1000 0 1.00208 0.271092
1000 0 1.00209 0.269978
1000 0 1.00208 0.270656
1010.61 1.21854e-08 1.00242 0.269474
1010.85 1.20018e-08 1.00243 0.26854
1010.69 1.2104e-08 1.00243 0.269014
1011.89 1.36355e-08 1.00277 0.264895
1000 0 1.00169 0.271015
1000 0 1.00208 0.270669
1010.77 1.21512e-08 1.00241 0.270143
1010.81 1.21712e-08 1.00242 0.269907
1010.84 1.2122e-08 1.00242 0.269427
1011.85 1.36425e-08 1.00276 0.266056
1011.87 1.36405e-08 1.00276 0.265022
1000 0 1.00209 0.270338
1010.95 1.19175e-08 1.00244 0.268055
1011.9 1.3641e-08 1.00278 0.264884
1011.74 1.35241e-08 1.00275 0.259537
1000 0 1.0017 0.270408
1000 0 1.0017 0.270788
1000 0 1.0017 0.270297
1010.83 1.17778e-08 1.00263 0.268673
1000 0 1.0017 0.270569
1000 0 1.0017 0.270284
1010.71 1.21265e-08 1.00262 0.268999
1000 0 1.00189 0.270711
1010.78 1.19103e-08 1.00262 0.268856
1010.92 1.17738e-08 1.00254 0.268673
1011.9 1.36066e-08 1.00278 0.265278
1000 0 1.0017 0.271103
1011.18 1.17813e-08 1.00266 0.269441
1010.88 1.21688e-08 1.00262 0.26917
1010.85 1.1989e-08 1.00262 0.268949
1011.87 1.36418e-08 1.00277 0.264879
1010.96 1.17218e-08 1.00245 0.268646
1011.89 1.36186e-08 1.00277 0.264864
1011.93 1.36212e-08 1.00278 0.265415
1011.78 1.35724e-08 1.00276 0.260681
1000 0 1.0017 0.271601
1000 0 1.0017 0.271548
1000 0 1.0017 0.270804
1000 0 1.0017 0.270953
1000 0 1.00169 0.270991
1000 0 1.00189 0.271331
1010.48 1.22073e-08 1.00251 0.269711
1000 0 1.00189 0.27107
1010.65 1.22427e-08 1.00252 0.269563
1000 0 1.00169 0.27101
1010.76 1.21534e-08 1.0026 0.269919
1010.83 1.2199e-08 1.00242 0.269502
1011.83 1.3639e-08 1.00276 0.267002
1010.87 1.22065e-08 1.00242 0.269256
1011.85 1.36478e-08 1.00276 0.266327
1000 0 1.00207 0.270874
1000 0 1.00207 0.271661
1000 0 1.00209 0.269886
1000 0 1.00208 0.27103
1010.83 1.21551e-08 1.00242 0.269238
1010.86 1.20732e-08 1.00243 0.268921
1010.9 1.19641e-08 1.00243 0.268625
1011.88 1.36393e-08 1.00277 0.264761
1000 0 1.00169 0.270981
1000 0 1.00208 0.271193
1010.48 1.21811e-08 1.00251 0.269795
1010.6 1.22019e-08 1.00242 0.26968
1000 0 1.0019 0.270217
1010.95 1.19598e-08 1.00244 0.268367
1010.65 1.21518e-08 1.00242 0.269238
1011.87 1.36383e-08 1.00276 0.265984
1011.9 1.36366e-08 1.00278 0.264642
1011.88 1.36365e-08 1.00277 0.265094
1011.74 1.35246e-08 1.00275 0.259537
1010.73 1.21416e-08 1.0026 0.269984
1010.8 1.21683e-08 1.00242 0.269997
1011.83 1.36349e-08 1.00275 0.267034
1011.84 1.36424e-08 1.00276 0.266474
1011.86 1.36419e-08 1.00276 0.265459
1011.71 1.34872e-08 1.00275 0.262302
1000 0 1.0017 0.270875
1011.73 1.35079e-08 1.00275 0.260021
1011.01 1.18837e-08 1.00264 0.268185
1011.92 1.36506e-08 1.00278 0.26467
1011.75 1.35429e-08 1.00276 0.259084
1011.68 1.34483e-08 1.00274 0.255856
1011.13 1.18584e-08 1.00266 0.268865
1012.02 1.37061e-08 1.00279 0.267495
1000 0 1.0017 0.270561
1000 0 1.0017 0.270311
1010.87 1.2095e-08 1.00262 0.269046
1000 0 1.0017 0.27111
1010.88 1.17306e-08 1.00263 0.268549
1010.83 1.18724e-08 1.00262 0.268833
1011.9 1.36116e-08 1.00278 0.265414
1000 0 1.0017 0.271263
1011.22 1.18102e-08 1.00266 0.269674
1010.7 1.21992e-08 1.00252 0.269128
1010.74 1.20231e-08 1.00253 0.268873
1011.88 1.36379e-08 1.00277 0.264906
1011.01 1.17612e-08 1.00264 0.268664
1011.89 1.3615e-08 1.00277 0.265003
1011.93 1.36177e-08 1.00278 0.265581
1011.78 1.35738e-08 1.00276 0.26034
1011.05 1.17458e-08 1.00265 0.268875
1011.29 1.18203e-08 1.00267 0.269957
1012.03 1.36888e-08 1.00279 0.268366
1011.86 1.36484e-08 1.00276 0.265263
1011.88 1.36311e-08 1.00277 0.26472
1011.72 1.34943e-08 1.00275 0.259566
1011.96 1.36434e-08 1.00279 0.266231
1011.76 1.35468e-08 1.00275 0.258891
1011.8 1.35971e-08 1.00277 0.26183
1011.72 1.34919e-08 1.00276 0.257162
1000 0 1.0017 0.271694
1000 0 1.0017 0.27166
1000 0 1.0017 0.271629
1011.24 1.18754e-08 1.00267 0.269527
1000 0 1.0017 0.271162
1000 0 1.0017 0.270704
1000 0 1.0017 0.270891
1010.85 1.2212e-08 1.00261 0.26978
1010.78 1.21778e-08 1.00261 0.269944
1000 0 1.0017 0.27101
1000 0 1.00169 0.271009
1010.69 1.21807e-08 1.0026 0.269937
1010.78 1.22277e-08 1.00252 0.269682
1011.87 1.36347e-08 1.00276 0.267004
1010.65 1.22372e-08 1.00261 0.269526
1011.87 1.36432e-08 1.00276 0.266306
1010.73 1.21348e-08 1.0026 0.269955
1011.83 1.36335e-08 1.00276 0.26718
1011.84 1.3644e-08 1.00276 0.266751
1011.71 1.34784e-08 1.00274 0.264781
1011.85 1.36494e-08 1.00276 0.265806
1011.71 1.34806e-08 1.00274 0.262951
1000 0 1.00169 0.270991
1000 0 1.00208 0.271763
1010.77 1.21512e-08 1.00261 0.269797
1010.81 1.21712e-08 1.00242 0.269438
1000 0 1.0017 0.270679
1010.95 1.19175e-08 1.00244 0.268685
1010.84 1.2122e-08 1.00242 0.269055
1011.85 1.36425e-08 1.00276 0.265901
1011.87 1.36405e-08 1.00277 0.265157
1011.9 1.3641e-08 1.00278 0.264421
1011.74 1.35241e-08 1.00275 0.259534
1010.65 1.21689e-08 1.0026 0.269963
1010.75 1.21972e-08 1.00242 0.269788
1011.86 1.36308e-08 1.00276 0.266951
1011.87 1.36381e-08 1.00276 0.266484
1000 0 1.0017 0.270779
1011.03 1.1926e-08 1.00255 0.26839
1011.92 1.36453e-08 1.00278 0.264603
1011.88 1.36378e-08 1.00276 0.265397
1011.71 1.34875e-08 1.00275 0.262049
1011.75 1.35435e-08 1.00275 0.259056
1011.73 1.35083e-08 1.00275 0.260138
1011.68 1.34483e-08 1.00274 0.255927
1011.21 1.18937e-08 1.00266 0.268731
1012.01 1.37009e-08 1.00279 0.267547
1011.83 1.36319e-08 1.00276 0.267201
1011.84 1.364e-08 1.00276 0.2668
1011.71 1.34822e-08 1.00275 0.264688
1011.71 1.34817e-08 1.00274 0.262785
1011.72 1.34961e-08 1.00275 0.260896
1011.66 1.34211e-08 1.00274 0.259272
1011.07 1.18616e-08 1.00265 0.26832
1011.67 1.34353e-08 1.00274 0.256454
1011.95 1.36678e-08 1.00278 0.265407
1011.77 1.35652e-08 1.00276 0.259059
1011.7 1.34631e-08 1.00275 0.255433
1011.68 1.34429e-08 1.00274 0.254459
1012 1.36914e-08 1.00279 0.266641
1012.03 1.3723e-08 1.00279 0.268429
1011.84 1.36602e-08 1.00277 0.265988
1010.88 1.21688e-08 1.00262 0.26928
1000 0 1.0017 0.271489
1011.18 1.17813e-08 1.00266 0.26996
1010.85 1.1989e-08 1.00262 0.268899
1011.87 1.36418e-08 1.00277 0.26494
1010.96 1.17218e-08 1.00264 0.268723
1011.93 1.36212e-08 1.00278 0.265763
1011.89 1.36186e-08 1.00277 0.265141
1011.78 1.35724e-08 1.00276 0.260006
1011.13 1.17768e-08 1.00265 0.269083
1011.31 1.18401e-08 1.00267 0.270114
1012.02 1.36857e-08 1.00279 0.268475
1011.88 1.36441e-08 1.00276 0.265258
1011.89 1.36277e-08 1.00277 0.264803
1011.72 1.34951e-08 1.00275 0.259566
1011.96 1.36403e-08 1.00279 0.266398
1011.76 1.35477e-08 1.00276 0.259071
1011.8 1.35988e-08 1.00277 0.261848
1011.72 1.34921e-08 1.00275 0.256609
1011.4 1.18569e-08 1.00268 0.270203
1012 1.36681e-08 1.00279 0.267525
1012.04 1.37016e-08 1.00279 0.269376
1011.85 1.3681e-08 1.00278 0.266979
1011.71 1.34768e-08 1.00274 0.260337
1011.74 1.35208e-08 1.00275 0.259019
1011.67 1.34237e-08 1.00274 0.255649
1011.82 1.36253e-08 1.00277 0.263782
1011.69 1.34578e-08 1.00275 0.25406
1011.74 1.3507e-08 1.00276 0.257787
1011.71 1.34796e-08 1.00275 0.255131
1012.05 1.37353e-08 1.00279 0.271076
1011.57 1.19285e-08 1.00269 0.270297
1000 0 1.0017 0.271719
1000 0 1.0017 0.271692
1000 0 1.0017 0.27166
1011.35 1.19155e-08 1.00267 0.269841
1000 0 1.0017 0.271378
1011.3 1.19077e-08 1.00267 0.269295
1000 0 1.0017 0.271035
1010.87 1.22065e-08 1.00261 0.269551
1010.83 1.2199e-08 1.00261 0.26989
1011.85 1.36478e-08 1.00276 0.266277
1011.83 1.3639e-08 1.00276 0.266993
1010.76 1.21534e-08 1.0026 0.269964
1000 0 1.00169 0.271008
1010.38 1.21648e-08 1.0026 0.269953
1011.83 1.36297e-08 1.00276 0.267177
1011.84 1.364e-08 1.00276 0.266712
1011.71 1.34784e-08 1.00274 0.264772
1011.87 1.36448e-08 1.00276 0.265773
1011.71 1.34808e-08 1.00274 0.263025
1011.82 1.36309e-08 1.00276 0.267242
1011.71 1.34751e-08 1.00274 0.265109
1011.71 1.34809e-08 1.00274 0.264171
1011.66 1.34178e-08 1.00274 0.2626
1011.71 1.3478e-08 1.00274 0.261584
1011.66 1.34198e-08 1.00274 0.260473
1010.73 1.21416e-08 1.0026 0.269938
1010.8 1.21683e-08 1.00242 0.269545
1011.83 1.36349e-08 1.00276 0.26688
1011.84 1.36424e-08 1.00276 0.266471
1000 0 1.0017 0.270672
1011.01 1.18837e-08 1.00245 0.26832
1011.92 1.36506e-08 1.00278 0.264533
1011.86 1.36419e-08 1.00276 0.265325
1011.71 1.34872e-08 1.00274 0.261784
1011.73 1.35079e-08 1.00275 0.260262
1011.75 1.35429e-08 1.00275 0.258999
1011.68 1.34483e-08 1.00274 0.255986
1011.13 1.18584e-08 1.00266 0.26859
1012.02 1.37061e-08 1.00279 0.267531
1011.83 1.36281e-08 1.00276 0.267134
1011.84 1.36362e-08 1.00276 0.266797
1011.71 1.34821e-08 1.00275 0.264601
1011.71 1.34819e-08 1.00274 0.263009
1011.1 1.19005e-08 1.00265 0.268302
1011.95 1.3663e-08 1.00278 0.26515
1011.77 1.35664e-08 1.00276 0.259167
1011.72 1.34965e-08 1.00275 0.261038
1011.66 1.34207e-08 1.00274 0.258973
1011.7 1.34635e-08 1.00275 0.255135
1011.67 1.34351e-08 1.00274 0.256473
1011.67 1.34425e-08 1.00274 0.254289
1011.99 1.36894e-08 1.00279 0.26687
1011.84 1.36637e-08 1.00277 0.266117
1012.03 1.37195e-08 1.00279 0.268259
1011.71 1.34774e-08 1.00275 0.265184
1011.71 1.34814e-08 1.00275 0.263838
1011.66 1.34231e-08 1.00274 0.262766
1011.66 1.34162e-08 1.00274 0.259967
1011.66 1.34244e-08 1.00274 0.257226
1011.65 1.34136e-08 1.00274 0.256455
1011.98 1.368e-08 1.00279 0.266062
1011.66 1.34295e-08 1.00274 0.254291
1011.79 1.35936e-08 1.00277 0.261093
1011.71 1.34763e-08 1.00275 0.253649
1011.69 1.34575e-08 1.00275 0.25306
1011.66 1.34247e-08 1.00274 0.252618
1012.04 1.37347e-08 1.00279 0.269422
1011.83 1.36439e-08 1.00277 0.265172
1011.85 1.36767e-08 1.00278 0.267135
1011.8 1.35865e-08 1.00277 0.264872
1011.86 1.36484e-08 1.00276 0.265258
1011.29 1.18203e-08 1.00267 0.270248
1011.05 1.17458e-08 1.00265 0.269313
1012.03 1.36888e-08 1.00279 0.268608
1011.88 1.36311e-08 1.00277 0.264896
1011.72 1.34943e-08 1.00275 0.259562
1011.96 1.36434e-08 1.00279 0.266554
1011.8 1.35971e-08 1.00277 0.261853
1011.76 1.35468e-08 1.00276 0.259246
1011.72 1.34919e-08 1.00275 0.256103
1011.4 1.18741e-08 1.00268 0.270291
1011.99 1.36654e-08 1.00279 0.267504
1012.03 1.37001e-08 1.00279 0.269586
1011.85 1.36824e-08 1.00278 0.267095
1011.71 1.34773e-08 1.00274 0.260345
1011.74 1.35218e-08 1.00275 0.25903
1011.67 1.34235e-08 1.00274 0.255652
1011.82 1.36273e-08 1.00277 0.264081
1011.7 1.34586e-08 1.00275 0.254452
1011.74 1.35074e-08 1.00276 0.257455
1011.71 1.34804e-08 1.00275 0.255428
1011.48 1.189e-08 1.00268 0.270298
1012.05 1.37119e-08 1.00279 0.270436
1011.84 1.36561e-08 1.00277 0.265865
1011.86 1.36958e-08 1.00278 0.267981
1011.82 1.36057e-08 1.00278 0.265819
1011.66 1.34259e-08 1.00274 0.256516
1011.68 1.34269e-08 1.00274 0.254378
1011.67 1.35341e-08 1.00274 0.252792
1011.76 1.35347e-08 1.00276 0.259131
1011.69 1.34781e-08 1.00275 0.25107
1011.72 1.3489e-08 1.00275 0.254534
1012.05 1.37245e-08 1.00279 0.27109
1011.84 1.36956e-08 1.00278 0.270703
1012.05 1.37482e-08 1.00279 0.271066
1012.05 1.37341e-08 1.00279 0.271079
1011.65 1.19687e-08 1.00249 0.27063
1011.57 1.19424e-08 1.00259 0.270616
1000 0 1.00212 0.270954
1000 0 1.0017 0.271698
1000 0 1.0017 0.271677
1011.47 1.19722e-08 1.00268 0.270113
1000 0 1.0017 0.271578
1011.39 1.19426e-08 1.00267 0.269713
1000 0 1.0017 0.271279
1011.24 1.18754e-08 1.00267 0.269128
1000 0 1.0017 0.270935
1011.85 1.36494e-08 1.00276 0.265744
1011.84 1.3644e-08 1.00276 0.266693
1011.71 1.34806e-08 1.00274 0.263052
1011.71 1.34784e-08 1.00274 0.264766
1011.83 1.36335e-08 1.00276 0.26717
1010.73 1.21348e-08 1.0026 0.269933
1011.86 1.36268e-08 1.00276 0.267243
1011.71 1.34749e-08 1.00274 0.265103
1011.71 1.34812e-08 1.00274 0.2641
1011.66 1.34175e-08 1.00274 0.262506
1011.71 1.34786e-08 1.00274 0.261584
1011.66 1.34196e-08 1.00274 0.260469
1011.71 1.34746e-08 1.00274 0.265204
1011.66 1.34089e-08 1.00274 0.263279
1011.66 1.34148e-08 1.00274 0.261869
1011.66 1.34877e-08 1.00274 0.261647
1011.66 1.34162e-08 1.00274 0.258031
1011.65 1.34281e-08 1.00274 0.25768
1011.83 1.36319e-08 1.00275 0.267074
1011.84 1.364e-08 1.00276 0.266828
1011.71 1.34822e-08 1.00275 0.264467
1011.71 1.34817e-08 1.00275 0.263256
1011.07 1.18616e-08 1.00265 0.268281
1011.95 1.36678e-08 1.00278 0.264886
1011.77 1.35652e-08 1.00276 0.259281
1011.72 1.34961e-08 1.00275 0.261189
1011.66 1.34211e-08 1.00274 0.258675
1011.67 1.34353e-08 1.00274 0.25649
1011.7 1.34631e-08 1.00275 0.254886
1011.68 1.34429e-08 1.00274 0.254172
1012 1.36914e-08 1.00279 0.267092
1011.84 1.36602e-08 1.00277 0.266268
1012.03 1.3723e-08 1.00279 0.268175
1011.71 1.34772e-08 1.00274 0.265125
1011.71 1.34816e-08 1.00275 0.263831
1011.66 1.34227e-08 1.00274 0.262551
1011.66 1.34158e-08 1.00274 0.260198
1011.97 1.36756e-08 1.00279 0.265961
1011.79 1.35948e-08 1.00277 0.260962
1011.71 1.34765e-08 1.00275 0.253945
1011.66 1.34241e-08 1.00274 0.257485
1011.65 1.34134e-08 1.00274 0.256274
1011.69 1.34574e-08 1.00275 0.252789
1011.66 1.34293e-08 1.00274 0.254308
1011.66 1.34244e-08 1.00274 0.252891
1011.83 1.36456e-08 1.00277 0.264931
1011.8 1.35863e-08 1.00277 0.264762
1012.04 1.37327e-08 1.00279 0.269331
1011.85 1.36776e-08 1.00278 0.267533
1011.66 1.34201e-08 1.00274 0.26329
1011.66 1.34105e-08 1.00274 0.261429
1011.65 1.34276e-08 1.00274 0.261702
1011.65 1.34225e-08 1.00273 0.257041
1011.66 1.34316e-08 1.00274 0.255129
1011.65 1.34035e-08 1.00273 0.255055
1011.81 1.36196e-08 1.00277 0.263709
1011.65 1.34204e-08 1.00274 0.252162
1011.73 1.35008e-08 1.00276 0.254965
1011.7 1.34721e-08 1.00275 0.250381
1011.68 1.34613e-08 1.00274 0.251587
1011.64 1.33315e-08 1.00274 0.252081
1012.04 1.37505e-08 1.00279 0.270106
1011.84 1.36839e-08 1.00278 0.2681
1011.78 1.35637e-08 1.00277 0.262815
1011.82 1.36096e-08 1.00278 0.265911
1011.79 1.35766e-08 1.00277 0.262939
1011.4 1.18569e-08 1.00268 0.270389
1011.71 1.34768e-08 1.00274 0.260361
1012.04 1.37016e-08 1.00279 0.269814
1012 1.36681e-08 1.00279 0.267423
1011.85 1.3681e-08 1.00278 0.267186
1011.74 1.35208e-08 1.00275 0.259031
1011.67 1.34237e-08 1.00274 0.255652
1011.82 1.36253e-08 1.00277 0.264374
1011.74 1.3507e-08 1.00276 0.256947
1011.69 1.34578e-08 1.00275 0.254848
1011.71 1.34796e-08 1.00275 0.255572
1011.49 1.19037e-08 1.00268 0.270341
1012.04 1.37105e-08 1.00279 0.270526
1011.84 1.36569e-08 1.00277 0.265991
1011.86 1.36967e-08 1.00278 0.268268
1011.82 1.36066e-08 1.00277 0.265701
1011.66 1.34268e-08 1.00274 0.256459
1011.68 1.34265e-08 1.00274 0.254372
1011.67 1.3535e-08 1.00274 0.252737
1011.76 1.3536e-08 1.00277 0.259324
1011.69 1.34772e-08 1.00275 0.251424
1011.72 1.34897e-08 1.00275 0.254406
1012.04 1.37172e-08 1.00279 0.270931
1011.86 1.37018e-08 1.00278 0.269049
1011.79 1.35717e-08 1.00277 0.26274
1011.84 1.36327e-08 1.00278 0.266919
1011.81 1.35997e-08 1.00277 0.263956
1011.66 1.35331e-08 1.00274 0.254564
1011.68 1.35077e-08 1.00274 0.250934
1011.55 1.28778e-08 1.00273 0.249999
1011.74 1.35173e-08 1.00276 0.254552
1011.71 1.35795e-08 1.00275 0.250717
1012.04 1.37234e-08 1.00279 0.271116
1011.85 1.3696e-08 1.00278 0.270659
1011.85 1.36969e-08 1.00278 0.270658
1011.85 1.36446e-08 1.00278 0.269674
1011.84 1.36973e-08 1.00278 0.270649
1012.05 1.3763e-08 1.00279 0.271088
1012.05 1.37467e-08 1.00279 0.271062
1011.73 1.20213e-08 1.00249 0.270627
1012.05 1.37353e-08 1.00279 0.271083
1011.65 1.19807e-08 1.00249 0.270822
1000 0 1.00213 0.270896
1011.57 1.19285e-08 1.00248 0.270811
1000 0 1.00191 0.271061
1000 0 1.0017 0.271672
1011.59 1.20252e-08 1.00269 0.270363
1011.5 1.19893e-08 1.00268 0.26997
1000 0 1.0017 0.271659
1000 0 1.0017 0.271458
1011.35 1.19155e-08 1.00267 0.269549
1000 0 1.0017 0.271161
1011.71 1.3478e-08 1.00274 0.26158
1011.71 1.34809e-08 1.00274 0.264077
1011.66 1.34198e-08 1.00274 0.260475
1011.66 1.34178e-08 1.00274 0.262411
1011.71 1.34751e-08 1.00274 0.265097
1011.82 1.36309e-08 1.00276 0.267236
1011.71 1.34743e-08 1.00274 0.265207
1011.66 1.34087e-08 1.00274 0.263319
1011.66 1.34143e-08 1.00274 0.261842
1011.66 1.34875e-08 1.00274 0.261525
1011.66 1.34156e-08 1.00274 0.257988
1011.65 1.34277e-08 1.00274 0.257841
1011.66 1.3401e-08 1.00274 0.26354
1011.68 1.35862e-08 1.00274 0.262503
1011.66 1.35013e-08 1.00273 0.259913
1011.62 1.33576e-08 1.00273 0.260789
1011.66 1.34786e-08 1.00274 0.256559
1011.66 1.34684e-08 1.00273 0.256553
1011.71 1.34774e-08 1.00274 0.265074
1011.71 1.34814e-08 1.00275 0.263753
1011.66 1.34231e-08 1.00274 0.262357
1011.66 1.34162e-08 1.00274 0.26043
1011.98 1.368e-08 1.00279 0.265863
1011.79 1.35936e-08 1.00277 0.260862
1011.71 1.34763e-08 1.00275 0.254221
1011.66 1.34244e-08 1.00274 0.257738
1011.65 1.34136e-08 1.00273 0.256112
1011.66 1.34295e-08 1.00274 0.254326
1011.69 1.34575e-08 1.00274 0.252409
1011.66 1.34247e-08 1.00274 0.253021
1011.83 1.36439e-08 1.00277 0.26472
1011.8 1.35865e-08 1.00277 0.264722
1012.04 1.37347e-08 1.00279 0.269209
1011.85 1.36767e-08 1.00278 0.267625
1011.66 1.34199e-08 1.00274 0.263295
1011.65 1.34102e-08 1.00274 0.261413
1011.65 1.34275e-08 1.00274 0.261632
1011.65 1.34226e-08 1.00273 0.257258
1011.81 1.36215e-08 1.00277 0.263512
1011.73 1.35021e-08 1.00276 0.255382
1011.7 1.34712e-08 1.00275 0.250131
1011.66 1.34313e-08 1.00274 0.255308
1011.65 1.34036e-08 1.00273 0.254957
1011.68 1.3461e-08 1.00274 0.251299
1011.65 1.342e-08 1.00274 0.252163
1011.63 1.333e-08 1.00274 0.252239
1011.78 1.35651e-08 1.00277 0.262713
1011.79 1.35766e-08 1.00277 0.262661
1011.82 1.36068e-08 1.00277 0.266061
1012.04 1.37487e-08 1.00279 0.270032
1011.85 1.36842e-08 1.00278 0.268045
1011.67 1.35589e-08 1.00274 0.262296
1011.66 1.34626e-08 1.00273 0.260008
1011.63 1.3367e-08 1.00273 0.254747
1011.63 1.33451e-08 1.00273 0.253544
1011.76 1.35364e-08 1.00276 0.259578
1011.63 1.32945e-08 1.00273 0.249082
1011.72 1.34959e-08 1.00275 0.250857
1011.69 1.35252e-08 1.00275 0.247106
1011.62 1.32288e-08 1.00274 0.250487
1012.05 1.37639e-08 1.00279 0.270502
1011.84 1.36867e-08 1.00278 0.268577
1011.84 1.36247e-08 1.00278 0.267241
1011.77 1.3559e-08 1.00277 0.260072
1011.82 1.3605e-08 1.00277 0.264141
1011.78 1.35748e-08 1.00277 0.260222
1011.48 1.189e-08 1.00268 0.270363
1012.05 1.37119e-08 1.00279 0.270599
1011.66 1.34259e-08 1.00274 0.2564
1011.86 1.36958e-08 1.00278 0.268552
1011.84 1.36561e-08 1.00277 0.266148
1011.82 1.36057e-08 1.00277 0.265581
1011.68 1.34269e-08 1.00274 0.254372
1011.67 1.35341e-08 1.00274 0.252692
1011.76 1.35347e-08 1.00277 0.259556
1011.72 1.3489e-08 1.00275 0.254429
1011.69 1.34781e-08 1.00275 0.251764
1012.04 1.37155e-08 1.00279 0.270977
1011.86 1.37025e-08 1.00278 0.269262
1011.79 1.35718e-08 1.00277 0.262936
1011.84 1.36336e-08 1.00278 0.267034
1011.81 1.36039e-08 1.00277 0.263703
1011.66 1.35277e-08 1.00274 0.254518
1011.68 1.35108e-08 1.00274 0.250964
1011.55 1.28724e-08 1.00273 0.249961
1011.74 1.35183e-08 1.00276 0.254333
1011.71 1.35823e-08 1.00275 0.250447