# vtk DataFile Version 2.0
Wound Healing Simulation
ASCII
DATASET UNSTRUCTURED_GRID
POINTS 3012 float
69.9759 18.75 4
67.2507 60.3285 4
69.976 18.75 2
73.0099 25.446 4
71.1327 20.9142 4
68.6801 16.6661 4
67.823 19.9266 3.97645
67.2507 60.3286 2
71.1327 54.0858 4
68.6801 58.3339 4
65.6939 62.2254 4
65.3098 58.9999 3.97576
74.6784 42.3946 4
73.7221 47.2057 4
69.9759 18.75 0
73.0099 25.446 2
68.6801 16.6661 2
71.1327 20.9142 2
67.8235 19.9301 2
74.6792 32.6053 4
73.7222 27.7943 4
72.1454 23.1494 4
70.6122 26.2215 3.97641
68.8833 21.9583 3.97692
67.2507 14.6715 4
66.6344 17.9731 3.97533
65.79 21.0288 3.96525
67.2507 60.3285 0
71.1327 54.0858 2
68.6801 58.3339 2
65.694 62.2255 2
65.311 58.9951 2
72.1454 51.8506 4
69.9759 56.25 4
68.8338 53.1131 3.97612
64.0165 64.0165 4
66.6082 57.1328 3.97613
63.8829 60.7638 3.97568
63.4941 57.7648 3.96674
60.3285 67.2507 4
74.6792 42.3947 2
73.7222 47.2057 2
74.9194 39.9526 4
74.2788 44.8158 4
72.1668 42.0858 3.97735
73.0099 49.554 4
71.2473 46.598 3.97603
73.0099 25.446 0
71.1327 20.9142 0
68.6801 16.6661 0
67.823 19.9266 0.0235534
74.6792 32.6053 2
73.7222 27.7943 2
67.2508 14.6715 2
72.1455 23.1494 2
70.6119 26.2221 2
66.6353 17.9777 2
68.8835 21.9605 2
65.7891 21.0299 2
74.9197 35.0474 4
74.2794 30.1841 4
72.1835 32.9441 3.97753
71.2765 28.4322 3.97638
69.8134 24.0599 3.97682
68.3412 26.9541 3.96543
66.7558 22.936 3.96506
65.694 12.7746 4
65.3207 16.1054 3.97445
64.7062 19.2003 3.96564
63.82 22.0616 3.96452
71.1327 54.0858 0
65.6939 62.2254 0
68.6801 58.3339 0
65.3098 58.9999 0.024243
72.1455 51.8506 2
69.9759 56.25 2
68.8339 53.1109 2
64.0165 64.0165 2
66.609 57.1285 2
63.8846 60.7589 2
63.4927 57.7644 2
62.2254 65.694 4
58.8924 65.413 3.98507
69.7665 50.989 3.9759
67.7811 55.167 3.97634
66.6424 52.2072 3.96497
62.333 62.4244 3.97805
64.6537 56.0273 3.96619
62.1969 59.3926 3.96697
61.7895 56.6599 3.96254
58.3339 68.6801 4
60.3285 67.2508 2
73.7221 47.2057 0
74.6784 42.3946 0
74.9197 39.9526 2
74.2794 44.8159 2
72.1661 42.0854 2
73.0099 49.554 2
71.247 46.5975 2
75 37.5 4
72.4041 39.8026 3.97821
71.7809 44.3529 3.97696
69.7996 41.79 3.96733
70.5729 48.8135 3.97575
68.9064 46.0141 3.96598
74.6792 32.6053 0
73.7222 27.7943 0
67.2507 14.6715 0
72.1454 23.1494 0
70.6122 26.2215 0.0235901
68.8833 21.9583 0.0230812
66.6344 17.9731 0.0246734
65.79 21.0288 0.0347495
74.9197 35.0474 2
74.2794 30.1841 2
72.1828 32.9445 2
71.2761 28.4326 2
65.694 12.7745 2
65.3221 16.1107 2
69.8133 24.0611 2
68.3408 26.955 2
64.7051 19.2013 2
66.7553 22.9372 2
63.82 22.0621 2
72.412 35.2248 3.97824
71.8024 30.6771 3.97723
69.8357 33.2708 3.96719
68.9609 29.0409 3.96591
67.6052 24.9146 3.96517
66.1136 27.6555 3.96786
64.0165 10.9835 4
64.6817 23.855 3.96575
63.8866 14.3302 3.97513
63.5056 17.4561 3.96616
62.8457 20.3487 3.96298
61.9474 22.9976 3.96784
60.6816 11.1012 3.97963
57.6069 11.4687 3.97055
72.1454 51.8506 0
69.9759 56.25 0
68.8338 53.1131 0.0238791
64.0165 64.0165 0
63.8829 60.7638 0.0243152
66.6082 57.1328 0.0238723
63.4941 57.7648 0.0332567
62.2255 65.694 2
58.8947 65.4101 2
69.7663 50.9878 2
67.7816 55.1637 2
66.6417 52.2063 2
62.3354 62.4203 2
64.6525 56.0266 2
62.195 59.3925 2
61.7905 56.6603 2
60.6664 63.974 3.98108
57.0234 66.7341 3.98761
57.5542 63.6813 3.97203
67.5007 50.1752 3.96494
65.6948 54.1706 3.96548
64.451 51.3603 3.96564
60.7677 60.9194 3.96849
62.7676 55.0455 3.96381
60.6386 58.1364 3.96139
60.2498 55.7449 3.96447
56.25 69.9759 4
58.3339 68.6801 2
60.3285 67.2507 0
58.9188 9.65865 3.98122
62.2254 9.30607 4
73.0099 49.554 0
74.2788 44.8158 0
71.2473 46.598 0.0239668
72.1668 42.0858 0.022654
74.9194 39.9526 0
75 37.5 2
72.4039 39.8024 2
71.7807 44.3523 2
69.7988 41.7896 2
70.5726 48.8129 2
68.9062 46.0134 2
72.4876 37.5126 3.97781
70.0371 39.6583 3.96771
69.4253 43.9073 3.9667
67.5162 41.4907 3.9707
68.2596 48.106 3.96536
66.6151 45.4234 3.96939
74.9197 35.0474 0
74.2794 30.1841 0
72.1835 32.9441 0.0224739
71.2765 28.4322 0.0236225
65.694 12.7746 0
65.3207 16.1054 0.0255545
69.8134 24.0599 0.023185
68.3412 26.9541 0.0345676
66.7558 22.936 0.0349442
64.7062 19.2003 0.0343601
63.82 22.0616 0.035478
72.4118 35.2249 2
71.8023 30.6777 2
69.8349 33.2713 2
68.9607 29.0417 2
64.0165 10.9835 2
63.8887 14.3353 2
63.5042 17.4571 2
67.6047 24.9157 2
66.1132 27.6561 2
62.846 20.3489 2
64.6813 23.8556 2
61.9465 22.9984 2
60.684 11.1053 2
57.6081 11.4615 2
70.0539 35.3939 3.96763
69.4624 31.1521 3.96651
67.5832 33.6008 3.9701
66.6909 29.6406 3.96854
65.4436 25.7226 3.96665
63.9606 28.2987 3.9738
62.3385 12.6589 3.97754
62.6957 24.6891 3.97005
62.1919 15.7999 3.96747
61.7675 18.7143 3.96187
61.0834 21.3993 3.96525
60.2035 23.8084 3.97167
59.2406 12.808 3.96843
55.87 10.2473 3.97336
56.3954 13.1651 3.96851
69.7665 50.989 0.0240958
62.2254 65.694 0
58.8924 65.413 0.0149299
67.7811 55.167 0.0236585
66.6424 52.2072 0.035026
62.333 62.4244 0.0219468
62.1969 59.3926 0.0330333
64.6537 56.0273 0.0338109
61.7895 56.6599 0.0374628
60.6686 63.9711 2
57.0255 66.7326 2
57.555 63.6827 2
67.5002 50.1743 2
65.6939 54.1697 2
64.451 51.3599 2
60.7668 60.9209 2
62.7679 55.0456 2
60.6413 58.1375 2
60.2494 55.7447 2
55.0693 67.9312 3.98918
59.2137 62.341 3.97001
55.8018 64.902 3.97739
56.318 62.0514 3.97046
65.2353 49.3844 3.96685
63.6327 53.2678 3.96458
62.2547 50.6003 3.96894
59.3206 59.5307 3.96468
60.9579 54.2632 3.96652
59.2234 56.9684 3.9624
59.1238 55.1282 3.9672
48.1003 68.5755 3.98524
50.9471 69.9313 3.99048
54.0858 71.1327 4
56.25 69.976 2
58.3339 68.6801 0
57.0559 8.33823 3.98307
60.3285 7.74928 4
58.9216 9.66288 2
62.2255 9.30602 2
70.5729 48.8135 0.0242464
71.7809 44.3529 0.0230444
68.9064 46.0141 0.0340249
69.7996 41.79 0.0326709
72.4041 39.8026 0.0217853
75 37.5 0
72.4868 37.5125 2
70.0369 39.6581 2
69.425 43.9068 2
67.5151 41.4905 2
68.2592 48.1051 2
66.6133 45.4228 2
70.1252 37.523 3.96771
67.7604 39.51 3.9712
67.1343 43.4583 3.97
65.3615 41.1923 3.97711
65.9695 47.3972 3.96824
64.4371 44.8129 3.97477
72.412 35.2248 0.021758
71.8024 30.6771 0.0227725
69.8357 33.2708 0.0328079
68.9609 29.0409 0.0340887
64.0165 10.9835 0
63.8866 14.3302 0.0248663
63.5056 17.4561 0.0338355
67.6052 24.9146 0.0348267
66.1136 27.6555 0.0321435
64.6817 23.855 0.0342508
62.8457 20.3487 0.0370245
61.9474 22.9976 0.0321602
60.6816 11.1012 0.0203662
57.6069 11.4687 0.0294501
70.0537 35.3942 2
69.4622 31.1527 2
67.5822 33.6011 2
66.69 29.6412 2
62.341 12.6634 2
62.1904 15.8004 2
61.768 18.7141 2
65.4433 25.7233 2
63.9585 28.2997 2
61.082 21.4001 2
62.6942 24.6901 2
60.2025 23.8095 2
59.2411 12.808 2
56.3965 13.1626 2
55.8718 10.2472 2
67.8003 35.5534 3.97081
67.1908 31.6362 3.96937
65.5181 33.9459 3.97708
64.4763 30.2285 3.97541
63.3641 26.4625 3.97208
61.9765 28.8452 3.97614
60.7691 14.2454 3.96835
60.801 25.4155 3.9743
60.5868 17.1585 3.9617
60.1007 19.8774 3.96224
59.4489 22.3445 3.96757
58.6928 24.4251 3.97426
54.0346 9.14588 3.97497
57.8985 14.3738 3.96725
54.7779 12.0548 3.97024
55.2957 14.7094 3.96732
67.5007 50.1752 0.0350594
57.0234 66.7341 0.0123948
60.6664 63.974 0.0189159
57.5542 63.6813 0.0279689
65.6948 54.1706 0.0345205
64.451 51.3603 0.0343561
60.7677 60.9194 0.0315118
60.6386 58.1364 0.0386104
62.7676 55.0455 0.0361884
60.2498 55.7449 0.0355332
55.071 67.9302 2
59.214 62.3421 2
55.802 64.9025 2
56.3165 62.0522 2
65.2348 49.3838 2
63.6328 53.2676 2
62.2543 50.5997 2
59.3201 59.5319 2
60.9583 54.263 2
59.2276 56.9692 2
59.1264 55.1282 2
53.0414 68.9993 3.99021
53.9645 66.0066 3.98004
57.8693 60.8365 3.96882
54.6772 63.1883 3.97229
55.1952 60.5685 3.96824
62.9917 48.6123 3.97093
61.585 52.5249 3.96765
59.9916 49.942 3.97128
57.9875 58.225 3.96249
59.157 53.8829 3.96848
57.987 55.7476 3.96287
50.107 67.8534 3.98438
47.4615 66.5732 3.98051
46.0542 69.1547 3.98596
48.1006 68.5759 2
48.801 70.7226 3.99084
50.9483 69.9308 2
51.8506 72.1454 4
54.0858 71.1327 2
56.25 69.9759 0
55.101 7.14216 3.98707
58.3339 6.31992 4
57.0591 8.34112 2
60.3286 7.74926 2
58.9188 9.65865 0.0187803
62.2254 9.30607 0
68.2596 48.106 0.0346409
69.4253 43.9073 0.0333044
66.6151 45.4234 0.030607
67.5162 41.4907 0.0293029
70.0371 39.6583 0.0322927
72.4876 37.5126 0.0221932
70.1245 37.5231 2
67.7589 39.5099 2
67.1339 43.4579 2
65.3584 41.1914 2
65.9691 47.3967 2
64.435 44.8119 2
67.8614 37.5239 3.9712
65.5995 39.3625 3.97697
64.9781 42.999 3.97645
63.4652 40.9044 3.97693
63.7476 46.6729 3.97275
62.4918 44.1606 3.97654
70.0539 35.3939 0.0323722
69.4624 31.1521 0.0334936
67.5832 33.6008 0.0298992
66.6909 29.6406 0.0314624
62.3385 12.6589 0.0224614
62.1919 15.7999 0.0325279
61.7675 18.7143 0.0381304
65.4436 25.7226 0.0333484
63.9606 28.2987 0.0261973
62.6957 24.6891 0.0299464
61.0834 21.3993 0.0347512
60.2035 23.8084 0.0283316
59.2406 12.808 0.0315691
56.3954 13.1651 0.0314935
55.87 10.2473 0.0266351
67.7986 35.5536 2
67.1906 31.6366 2
65.5146 33.9467 2
64.474 30.2294 2
60.7689 14.2458 2
60.5862 17.1581 2
60.0991 19.8781 2
63.3623 26.4634 2
61.9741 28.8463 2
59.4503 22.3451 2
60.7992 25.4166 2
58.6919 24.4262 2
57.8973 14.3737 2
55.2959 14.7078 2
54.0364 9.14547 2
54.7784 12.0526 2
65.6979 35.6775 3.97708
64.9983 32.1822 3.97633
64.0278 34.2747 3.97697
62.2946 30.6931 3.97617
61.3844 27.146 3.97556
60.5052 29.2245 3.97638
59.2959 15.703 3.96338
59.0105 25.9019 3.97606
59.0466 18.413 3.96115
58.5529 20.9427 3.96343
58.0105 23.2029 3.96912
57.6531 24.7854 3.97501
52.1098 8.16138 3.97833
53.051 11.0456 3.97146
56.6552 15.7974 3.96377
53.7937 13.7441 3.96638
54.3419 16.0722 3.96073
55.0693 67.9312 0.0108193
65.2353 49.3844 0.0331463
55.8018 64.902 0.0226079
59.2137 62.341 0.0299943
56.318 62.0514 0.0295354
63.6327 53.2678 0.0354235
62.2547 50.6003 0.0310603
59.3206 59.5307 0.0353175
59.2234 56.9684 0.037597
60.9579 54.2632 0.0334779
59.1238 55.1282 0.0327991
53.0428 68.9988 2
53.9648 66.0071 2
57.8676 60.8373 2
54.6766 63.1896 2
55.1931 60.5689 2
62.9905 48.6115 2
61.585 52.5245 2
59.9924 49.9414 2
57.985 58.2258 2
59.1603 53.8828 2
57.9837 55.746 2
52.0682 66.9957 3.98311
52.9496 64.206 3.97713
56.6284 59.4496 3.96897
53.6674 61.5821 3.97229
[...]
POINT_DATA 3012
SCALARS Jp_lamdaP float 4
LOOKUP_TABLE default
0.999702 1 1 0.999702
1 1 1 1
0.999711 1 1 0.999711
0.999648 1 1 0.999648
0.999704 1 1 0.999704
0.999685 1 1 0.999685
0.998918 1 1 0.998918
1 1 1 1
1 1 1 1
1 1 1 1
0.999777 1 1 0.999777
0.999037 1 1 0.999037
0.999637 1 1 0.999637
0.99965 1 1 0.99965
0.999712 1 1 0.999712
0.999673 1 1 0.999673
0.999692 1 1 0.999692
0.999719 1 1 0.999719
0.998919 1 1 0.998919
1 1 1 1
0.999629 1 1 0.999629
0.999681 1 1 0.999681
0.998791 1 1 0.998791
0.998894 1 1 0.998894
0.999694 1 1 0.999694
0.998936 1 1 0.998936
1.01019 1.0125 1 0.997715
1 1 1 1
0.999842 1 1 0.999842
0.999855 1 1 0.999855
1 1 1 1
0.999046 1 1 0.999046
0.999676 1 1 0.999676
0.999703 1 1 0.999703
0.999056 1 1 0.999056
1 1 1 1
0.99914 1 1 0.99914
0.999138 1 1 0.999138
1.00387 1.00618 1 0.997702
1 1 1 1
1 1 1 1
0.999825 1 1 0.999825
1 1 1 1
0.999653 1 1 0.999653
0.998719 1 1 0.998719
1 1 1 1
0.998957 1 1 0.998957
0.999695 1 1 0.999695
0.99973 1 1 0.99973
0.999693 1 1 0.999693
0.998925 1 1 0.998925
0.999808 1 1 0.999808
0.999652 1 1 0.999652
0.999707 1 1 0.999707
0.999703 1 1 0.999703
0.998789 1 1 0.998789
0.998939 1 1 0.998939
0.998895 1 1 0.998895
1.01061 1.01294 1 0.9977
1 1 1 1
0.999627 1 1 0.999627
0.998975 1 1 0.998975
0.998759 1 1 0.998759
0.998845 1 1 0.998845
1.01356 1.01616 1 0.997441
1.01168 1.01416 1 0.997558
0.999757 1 1 0.999757
0.999041 1 1 0.999041
1.00765 1.00986 1 0.997809
1.02811 1.03137 1 0.996836
1 1 1 1
1 1 1 1
1 1 1 1
0.999054 1 1 0.999054
1 1 1 1
1 1 1 1
0.998896 1 1 0.998895
0.99992 1 1 0.99992
0.998999 1 1 0.998999
0.999255 1 1.00001 0.999243
1.00273 1.00505 1 0.997699
1 1 1 1
1.00099 1 1.00119 0.999803
0.99882 1 1 0.99882
0.998929 1 1 0.998929
1.01448 1.01725 1 0.997276
0.999797 1 1.00032 0.99948
1.00826 1.01069 1 0.997601
1.00033 1.00249 1 0.99785
1.01027 1.01331 1 0.997001
1 1 1 1
1 1 1 1
1 1 1 1
1 1 1 1
1 1 1 1
0.999824 1 1 0.999824
0.998839 1 1 0.998839
0.999827 1 1 0.999827
0.998871 1 1 0.998871
1 1 1 1
0.998728 1 1 0.998728
0.998945 1 1 0.998945
1.01341 1.01639 1 0.997068
0.998992 1 1 0.998992
1.01589 1.01883 1 0.997113
0.999659 1 1 0.999659
0.999673 1 1 0.999673
0.999717 1 1 0.999717
0.999721 1 1 0.999721
0.998788 1 1 0.998788
0.998899 1 1 0.998899
0.998945 1 1 0.998945
1.01101 1.01336 1 0.997686
1 1 1 1
0.999649 1 1 0.999649
0.998756 1 1 0.998756
0.998754 1 1 0.998754
0.999879 1 1 0.999879
0.999115 1 1 0.999115
0.998845 1 1 0.998845
1.01353 1.01617 1 0.997402
1.00834 1.01058 1 0.997791
1.01196 1.0144 1 0.997586
1.02804 1.03129 1 0.996843
0.998751 1 1 0.998751
0.998752 1 1 0.998752
1.01212 1.01486 1 0.997298
1.01349 1.01619 1 0.997342
1.01335 1.01594 1 0.997452
1.03698 1.04036 1 0.996746
1 1 1 1
1.03106 1.03437 1 0.996803
0.999488 1 1.00023 0.999254
1.00341 1.00563 1 0.997796
1.02458 1.0278 1 0.996869
1.03519 1.03863 1 0.996687
1.00128 1 1.00172 0.999563
1.00646 1 1.00793 0.998535
1 1 1 1
1 1 1 1
0.998901 1 1 0.998901
1 1 1 1
0.999315 1 1.00011 0.999205
0.999006 1 1 0.999006
1.00164 1.00395 1 0.997695
1 1 1 1
1.00055 1 1.00073 0.999826
0.998924 1 1 0.998923
0.999025 1 1 0.999025
1.01387 1.01664 1 0.997277
1.00003 1 1.0006 0.999437
1.00701 1.00943 1 0.997604
0.999673 1.00183 1 0.997848
1.01113 1.01419 1 0.996988
1.00107 1 1.00144 0.999628
0.999913 1 1 0.999913
1.00294 1 1.00413 0.998815
1.01598 1.01886 1 0.997172
1.01201 1.01461 1 0.997439
1.03424 1.0377 1 0.996667
0.99924 1.00059 1.00052 0.998124
1.01986 1.023 1 0.996934
1.00693 1.00928 1.00057 0.997093
1.01961 1.02286 1 0.996824
1 1 1 1
1 1 1 1
1 1 1 1
1.00037 1 1.00068 0.999695
1 1 1 1
1 1 1 1
1 1 1 1
0.998786 1 1 0.998786
0.998751 1 1 0.998751
1 1 1 1
1 1 1 1
0.99873 1 1 0.99873
0.99886 1 1 0.99886
1.01386 1.01684 1 0.997068
0.998805 1 1 0.998805
1.01609 1.01903 1 0.997112
0.998725 1 1 0.998725
1.01222 1.01523 1 0.997032
1.01478 1.01773 1 0.997102
1.04139 1.04489 1 0.996654
1.01634 1.01927 1 0.997125
1.04293 1.04641 1 0.996666
1 1 1 1
0.999671 1 1 0.999671
0.998515 1 1 0.998515
0.99875 1 1 0.99875
1 1 1 1
0.999191 1 1 0.999191
0.998847 1 1 0.998847
1.01346 1.01614 1 0.997363
1.01226 1.01468 1 0.997615
1.00905 1.0113 1 0.997773
1.02795 1.0312 1 0.99685
0.998749 1 1 0.998749
0.998747 1 1 0.998747
1.012 1.01486 1 0.997177
1.0135 1.01618 1 0.997366
1 1 1 1
0.999391 1 1.0001 0.99929
1.00472 1.00686 1 0.99787
1.0133 1.01589 1 0.997448
1.0368 1.04021 1 0.996726
1.02397 1.0272 1 0.996861
1.03128 1.03455 1 0.996838
1.03482 1.03825 1 0.996696
1.0012 1 1.00165 0.999551
1.00474 1 1.00621 0.998537
1.01176 1.01475 1 0.997054
1.01239 1.01511 1 0.997327
1.03853 1.04194 1 0.996726
1.03721 1.04065 1 0.996694
1.03412 1.03741 1 0.996825
1.04522 1.04859 1 0.996789
1.00054 1 1.00113 0.99941
1.03763 1.04101 1 0.996753
1 1.00192 1.00011 0.997979
1.01706 1.02017 1 0.996957
1.03273 1.03621 1 0.996647
1.03604 1.03931 1 0.996849
1.0031 1.00009 1.00471 0.998316
1.00283 1 1.00403 0.99881
1.00331 1 1.00546 0.997867
0.998849 1 1 0.998847
1 1 1 1
1.00007 1 1.00023 0.999848
0.998962 1 1 0.998962
1.01325 1.01602 1 0.997278
1.00016 1 1.00071 0.999441
0.998821 1.00094 1.00004 0.997847
1.00578 1.00819 1 0.997607
1.01211 1.01518 1 0.996974
1.00086 1 1.00121 0.99965
0.999928 1 1 0.999928
1.00346 1 1.00465 0.998816
1.01562 1.0185 1 0.997171
1.01103 1.01362 1 0.997442
1.03436 1.03782 1 0.996662
0.998819 1.00023 1.00047 0.998128
1.02101 1.02414 1 0.99694
1.00606 1.00852 1.00047 0.997088
1.02035 1.02361 1 0.996816
0.999964 1 1 0.999964
1.00116 1.00001 1.00272 0.998444
1.00148 1 1.00229 0.99919
1.00348 1 1.00534 0.998147
1.03853 1.04204 1 0.996624
1.02843 1.03173 1 0.996797
1.03928 1.04285 1 0.99658
1.00255 1.00466 1.00049 0.997414
1.02712 1.0304 1 0.996816
1.0159 1.01759 1.00158 0.996764
1.02812 1.0315 1 0.99672
0.999709 1 1 0.999709
0.999995 1 1 0.999995
1 1 1 1
1 1 1 1
1 1 1 1
0.999813 1 1 0.999813
1 1 1 1
1.00099 1 1.00131 0.999682
1 1 1 1
0.998806 1 1 0.998806
0.998772 1 1 0.998772
1.0164 1.01935 1 0.997111
1.01428 1.01727 1 0.997069
0.998732 1 1 0.998732
1 1 1 1
0.998725 1 1 0.998725
1.01254 1.01555 1 0.997033
1.01517 1.01813 1 0.997101
1.04078 1.04427 1 0.996652
1.01639 1.01933 1 0.997123
1.043 1.04649 1 0.996663
1.01164 1.01466 1 0.997029
1.04024 1.04377 1 0.996622
1.04214 1.04562 1 0.996672
1.04936 1.05376 0.998927 0.9969
1.04244 1.04595 1 0.99664
1.05104 1.05463 0.99978 0.996815
0.998746 1 1 0.998746
0.998741 1 1 0.998741
1.01189 1.01487 1 0.997056
1.01354 1.01619 1 0.99739
1 1 1 1
0.999327 1 1 0.999327
1.00597 1.00804 1 0.997944
1.01324 1.01584 1 0.997444
1.03667 1.0401 1 0.996706
1.03145 1.03469 1 0.996874
1.02339 1.02662 1 0.996853
1.03459 1.03802 1 0.996704
1.00133 1 1.00179 0.99954
1.00389 1 1.00536 0.998538
1.01167 1.01468 1 0.997033
1.01242 1.01513 1 0.997323
1.03848 1.04187 1 0.996744
1.03728 1.04071 1 0.99671
1.00025 1 1.00085 0.999399
1.00101 1.00296 1.00007 0.997976
1.0168 1.01987 1 0.996991
1.03441 1.03772 1 0.996811
1.04548 1.0488 1 0.996826
1.03227 1.03577 1 0.996624
1.03758 1.04095 1 0.996757
1.03625 1.03952 1 0.996847
1.00272 1.00012 1.0043 0.998318
1.0039 1.0001 1.00594 0.99787
1.00355 1 1.00474 0.998808
1.03848 1.04193 1 0.99669
1.03788 1.04125 1 0.996761
1.04934 1.05343 0.999268 0.996845
1.0467 1.05025 0.999805 0.996811
1.04063 1.04395 1 0.996818
1.04209 1.04702 0.998176 0.997101
0.999111 1.00035 1.0006 0.998161
1.03841 1.04157 1 0.996966
1.00657 1.00932 1 0.997272
1.02388 1.02743 1 0.996547
1.03243 1.03597 1 0.99658
1.03126 1.03427 1 0.997088
1.00085 1 1.00178 0.99907
0.99897 1.00052 1.00067 0.997777
1.00793 1 1.00993 0.998025
1.00165 1.00137 1.00266 0.997629
1.01528 1.01816 1 0.997169
0.999944 1 1 0.999944
1.00077 1 1.00109 0.999672
1.00413 1 1.00532 0.998817
1.01005 1.01264 1 0.997446
1.03448 1.03795 1 0.996658
0.998547 1.00001 1.00041 0.998132
1.00513 1.00774 1.00033 0.997082
1.02212 1.02525 1 0.996946
1.02044 1.02371 1 0.996807
0.999972 1 1 0.999972
1.00202 1 1.00359 0.998445
1.00095 1 1.00175 0.999199
1.0041 1 1.00597 0.998141
1.03841 1.04193 1 0.996619
1.02863 1.03193 1 0.996796
1.03892 1.04249 1 0.996577
1.00112 1.00326 1.00045 0.99742
1.02686 1.03014 1 0.996819
1.01571 1.01726 1.00173 0.996753
1.02793 1.03123 1 0.996798
0.999987 1 1 0.999987
0.999739 1 1.00029 0.999453
1.00054 1.0009 1.00183 0.997814
1.00377 1 1.00528 0.998493
1.00103 1.00009 1.00311 0.997837
1.04374 1.04728 1 0.99662
1.03322 1.03667 1 0.996669
1.035 1.03844 1 0.996687
1.00647 1.00746 1.00199 0.99703
1.02578 1.02907 1 0.996799
1.01605 1.01873 1.00086 0.996513
0.999671 1 1 0.999671
0.999176 1 1 0.999176
0.999738 1 1 0.999738
0.999711 1 1 0.999711
0.999998 1 1 0.999998
0.999996 1 1 0.999996
1 1 1 1
1 1 1 1
1 1 1 1
0.999913 1 1 0.999913
1 1 1 1
0.999962 1 1.00016 0.999797
1 1 1 1
1.0011 1 1.00143 0.999668
1 1 1 1
1.01639 1.01932 1 0.99712
1.01551 1.01846 1 0.997101
1.04281 1.0463 1 0.996661
1.04016 1.04366 1 0.99665
1.01292 1.01594 1 0.997033
0.998724 1 1 0.998724
1.0118 1.01481 1 0.997028
1.03993 1.04346 1 0.996622
1.04177 1.04525 1 0.99667
1.0496 1.05429 0.998629 0.996918
1.04175 1.04527 1 0.996636
1.05058 1.05412 0.999837 0.996813
1.03899 1.04252 1 0.996614
1.04835 1.05362 0.998071 0.996922
1.05094 1.05489 0.999375 0.996874
1.04656 1.05408 0.995717 0.997135
1.04701 1.05045 1 0.996723
1.04789 1.05402 0.99703 0.997152
1.01162 1.01465 1 0.997012
1.01245 1.01517 1 0.997318
1.03845 1.04183 1 0.996761
1.03733 1.04073 1 0.996726
0.99994 1 1.00055 0.999389
1.00195 1.00396 1.00002 0.997974
1.01683 1.01986 1 0.997024
1.03472 1.03805 1 0.996797
1.04573 1.04902 1 0.996863
1.03759 1.04096 1 0.996762
1.03164 1.03516 1 0.9966
1.03645 1.03973 1 0.996845
1.00201 1.00016 1.00353 0.99832
1.00435 1.00022 1.00628 0.997873
1.0039 1 1.0051 0.998806
1.03858 1.04206 1 0.996662
1.0381 1.04148 1 0.996758
1.04876 1.05302 0.999069 0.996884
1.04696 1.05056 0.999774 0.996798
0.999644 1.00075 1.00074 0.998159
1.00787 1.01063 1 0.997267
1.02261 1.02608 1.00003 0.996592
1.04081 1.04416 1 0.996792
1.04185 1.04697 0.997947 0.99715
1.03295 1.03654 1 0.996543
1.03827 1.04143 1 0.996969
1.03197 1.03495 1 0.997123
0.999978 1.00103 1.00117 0.997778
1.00172 1.00136 1.00277 0.997601
1.00143 1 1.00237 0.999067
1.00738 1 1.00934 0.998063
1.04881 1.05314 0.999016 0.99687
1.04893 1.05301 0.999275 0.996846
1.04333 1.0507 0.995931 0.997048
1.04224 1.04996 0.995456 0.997173
1.04011 1.04368 0.999495 0.997089
1.03858 1.04593 0.995628 0.997333
1.00043 1.00286 1 0.997578
1.03303 1.03678 0.999064 0.997319
1.01205 1.01526 1 0.996831
1.02231 1.02588 1.00018 0.99634
1.03389 1.03746 1 0.996554
1.03268 1.03562 1 0.997158
0.999529 1 1.00025 0.999279
1.00646 1 1.00818 0.998297
1.00013 1.00262 1 0.997516
1.0042 1 1.00645 0.997764
1.00168 1.00199 1.00217 0.997534
0.99998 1 1 0.99998
1.03822 1.04175 1 0.996614
1.00025 1 1.00104 0.999208
1.00283 1 1.00439 0.998446
1.00475 1 1.00662 0.998135
1.02883 1.03214 1 0.996795
1.0386 1.04217 1 0.996575
0.999825 1.0019 1.00051 0.997427
1.01664 1.018 1.00193 0.996741
1.02672 1.03 1 0.996822
1.02823 1.03145 1 0.996875
0.99999 1 1 0.99999
0.999591 1 1.00013 0.999462
0.999738 1.00059 1.00134 0.997816
1.00473 1 1.00625 0.998492
1.00147 1.00007 1.00359 0.997821
1.04366 1.04721 1 0.996614
1.03314 1.0366 1 0.996667
1.03501 1.03846 1 0.996676
1.00629 1.00714 1.00213 0.997035
1.02819 1.03149 1 0.996796
1.0162 1.01876 1.00096 0.996534
0.999598 1 1 0.999598
1.00063 1 1.0018 0.998829
1.0007 1.00275 1.00048 0.997477
1.00587 1 1.00776 0.998123
1.00072 1.00092 1.00203 0.997769
1.04047 1.04381 1 0.996801
1.02947 1.03286 1 0.996713
1.03421 1.03743 1 0.996892
1.00294 1.00231 1.00379 0.996847
1.01448 1.01809 1 0.996455
0.999674 1 1 0.999674
0.9991 1 1 0.9991
0.999151 1 1 0.999151
0.998903 1 1 0.998903
0.999193 1 1 0.999193
0.999753 1 1 0.999753
0.999739 1 1 0.999739
1 1 1 1
0.999713 1 1 0.999713
0.999999 1 1 0.999999
1 1 1 1
0.999997 1 1 0.999997
1 1 1 1
1 1 1 1
0.999976 1 1 0.999976
0.999895 1 1 0.999895
1 1 1 1
1 1 1 1
1.00036 1 1.00058 0.999781
1 1 1 1
1.0412 1.04472 1 0.996632
1.0416 1.04508 1 0.996667
1.05033 1.05381 0.999896 0.99681
1.04988 1.05486 0.998339 0.996936
1.03952 1.04304 1 0.996622
1.01186 1.01488 1 0.997028
1.03893 1.04246 1 0.996615
1.04829 1.05349 0.998145 0.996917
1.05105 1.05491 0.999468 0.996874
1.04577 1.05382 0.995181 0.997166
1.04773 1.05118 1 0.996716
1.04776 1.05395 0.996941 0.997175
1.04843 1.05327 0.998507 0.996891
1.04441 1.05237 0.995316 0.997109
1.04653 1.05461 0.995117 0.997211
1.04436 1.05482 0.992772 0.997292
1.04605 1.04981 0.999417 0.997002
1.04478 1.0542 0.993663 0.997383
1.03857 1.04207 1 0.996634
1.03829 1.04167 1 0.996756
1.04816 1.05258 0.998876 0.996924
1.04714 1.05079 0.999742 0.996786
1.00023 1.00122 1.00086 0.998157
1.00874 1.01151 1 0.997261
1.02116 1.02442 1.00018 0.996637
1.04095 1.04432 1 0.996766
1.04159 1.04693 0.997692 0.9972
1.03805 1.04121 1 0.996972
1.03346 1.03708 1 0.996506
1.0321 1.03505 1 0.997157
1.00099 1.00143 1.00179 0.99778
1.00167 1.0012 1.0029 0.997573
1.00189 1 1.00283 0.999063
1.00637 1 1.00828 0.998102
1.04857 1.05287 0.999037 0.99687
1.04858 1.05255 0.999406 0.996824
1.04352 1.05099 0.995807 0.997081
1.04268 1.04996 0.995902 0.997155
1.00142 1.00386 1 0.99757
1.01056 1.0137 1.00003 0.996875
1.02272 1.02609 1.00039 0.996329
1.03992 1.04333 0.999683 0.997041
1.03758 1.04523 0.995281 0.997391
1.03098 1.03456 1 0.99654
1.03402 1.0377 0.999135 0.997321
1.03324 1.03612 1 0.997216
1.00022 1.00271 1 0.997514
1.00151 1.00253 1.00146 0.997535
1.00481 1.00011 1.00696 0.997757
0.999872 1 1.00063 0.999243
1.00594 1 1.00762 0.998334
1.04319 1.05158 0.994912 0.997096
1.0433 1.05189 0.994691 0.997128
1.03829 1.04964 0.991787 0.997378
1.03448 1.04191 0.995455 0.997399
1.00329 1.00605 1 0.99726
1.03798 1.0418 0.998841 0.997498
1.0068 1.00997 1.00029 0.996576
1.01977 1.02321 1.00051 0.996129
1.02844 1.03202 1 0.996536
0.999426 1 1 0.999426
1.00263 1 1.004 0.998636
1.00556 1 1.00753 0.99805
1.00181 1.0044 1 0.997419
1.00388 1 1.0064 0.997496
1.00103 1.00264 1.001 0.997395
0.999993 1 1 0.999993
0.999471 1 1 0.999471
1.04359 1.04714 1 0.996608
1.00579 1 1.00731 0.998492
0.99876 1.0002 1.00074 0.997818
1.0017 1 1.0039 0.997804
1.03294 1.03639 1 0.996666
1.03487 1.03833 1 0.996664
1.00557 1.00626 1.00229 0.997039
1.0154 1.01813 1.00077 0.996555
1.0305 1.03381 1 0.996794
0.999604 1 1 0.999604
1.00044 1 1.00161 0.998833
1.00033 1.00245 1.00041 0.997474
1.00701 1 1.0089 0.998118
1.00052 1.00102 1.00174 0.997771
1.04045 1.0438 1 0.996794
1.02984 1.03325 1 0.996701
1.03405 1.03725 1 0.996918
1.00386 1.00382 1.00324 0.996808
1.01335 1.01693 1.00006 0.996426
0.999046 1 1 0.999046
1.00609 1 1.0077 0.998398
1.00217 1.00283 1.002 0.997349
1.00549 1.00116 1.00645 0.997886
1.00289 1.00426 1.001 0.997651
1.03999 1.04419 0.998689 0.997282
1.02876 1.03226 1 0.996613
1.03065 1.03383 1 0.996919
1.00552 1.00453 1.00433 0.996671
1.00504 1.00883 1 0.996237
0.999677 1 1 0.999677
0.999118 1 1 0.999118
0.998825 1 1 0.998825
0.999126 1 1 0.999126
0.999192 1 1 0.999192
0.998873 1 1 0.998873
0.998764 1 1 0.998764
0.998819 1 1 0.998819
0.999206 1 1 0.999206
0.999747 1 1 0.999747
0.999753 1 1 0.999753
1 1 1 1
0.999741 1 1 0.999741
1 1 1 1
1 1 1 1
0.999999 1 1 0.999999
1 1 1 1
1 1 1 1
0.999997 1 1 0.999997
0.999962 1 1 0.999962
1 1 1 1
0.99991 1 1.00003 0.999876
1 1 1 1
1 1 1 1
1.04841 1.05187 1 0.996709
1.05095 1.05472 0.999559 0.996873
1.04761 1.05385 0.996867 0.997197
1.04493 1.05354 0.994623 0.997198
1.04828 1.05339 0.998239 0.996911
1.039 1.04253 1 0.996615
1.04839 1.05313 0.998624 0.996871
1.04494 1.05249 0.99572 0.997102
1.04625 1.05425 0.995203 0.997195
1.04343 1.05439 0.992284 0.997304
1.04556 1.04914 0.999583 0.997003
1.04308 1.05322 0.992923 0.997424
1.04506 1.05228 0.996041 0.997084
1.04468 1.05588 0.992078 0.997288
1.04459 1.05643 0.991381 0.997394
1.04054 1.05026 0.993272 0.997452
1.04839 1.05267 0.99906 0.99687
1.04833 1.05219 0.999535 0.996803
1.04374 1.05127 0.995704 0.997114
1.0432 1.05003 0.996344 0.997138
1.00268 1.00513 1 0.997562
1.00951 1.01263 1 0.996918
1.02308 1.02626 1.00058 0.996319
1.03976 1.04302 0.999889 0.996993
1.03652 1.04448 0.994926 0.997448
1.03531 1.03893 0.999196 0.997322
1.02875 1.03234 1 0.996525
1.03513 1.03796 1 0.997273
1.00071 1.0032 1 0.997512
1.00153 1.00331 1.00069 0.997535
1.00625 1.00019 1.00832 0.99775
1.00016 1 1.00095 0.999206
1.00576 1 1.00741 0.998371
1.04376 1.05207 0.99499 0.997098
1.04367 1.05225 0.994708 0.997123
1.03808 1.04889 0.992303 0.997368
1.00363 1.0064 1 0.997254
1.00731 1.01047 1.00026 0.996619
1.01848 1.02167 1.00076 0.996118
1.03504 1.04223 0.99571 0.997385
1.03064 1.03412 1 0.996639
1.03456 1.03864 0.998598 0.997466
0.999457 1 1 0.999457
1.00238 1.00498 1 0.997409
0.999934 1.0019 1.00051 0.997525
1.00489 1.00015 1.00726 0.997485
1.00577 1 1.00771 0.998072
1.00261 1 1.00402 0.998601
1.04301 1.05409 0.992291 0.997178
1.04141 1.05583 0.989016 0.997301
1.03203 1.04718 0.988038 0.997462
1.03382 1.04506 0.991626 0.997603
1.00444 1.0074 1 0.997062
1.0295 1.03274 0.999788 0.997076
1.00375 1.00597 1.00165 0.996157
1.01037 1.01341 1.00104 0.995964
0.999666 1 1 0.999666
0.999706 1 1.0008 0.998909
1.00375 1 1.00546 0.998301
1.00566 1 1.00802 0.997654
1.00242 1.00422 1.00097 0.997235
1.00669 1.00111 1.00838 0.997213
0.99961 1 1 0.99961
1.00019 1 1.00135 0.998837
1.04067 1.04402 1 0.996788
1.00808 1 1.00999 0.998112
0.999967 1.00223 1.00027 0.997471
0.999958 1.00067 1.00152 0.997772
1.03046 1.03388 1 0.996689
1.03422 1.03739 1 0.996944
1.00508 1.00559 1.00273 0.996769
1.01227 1.01566 1.00027 0.996397
0.999049 1 1 0.999049
1.00607 1 1.00769 0.998393
1.00254 1.00321 1.00198 0.997358
1.00472 1.00061 1.00623 0.997896
1.00283 1.00463 1.00048 0.997732
1.0409 1.04527 0.998485 0.997327
1.02831 1.03179 1 0.996631
1.03226 1.03537 1 0.996992
1.00537 1.00417 1.00458 0.996635
1.00541 1.00924 1.00003 0.996171
0.999277 1 1.00056 0.998718
1.00672 1 1.00873 0.998016
1.00608 1.00507 1.00378 0.997227
1.00254 1.00341 1.00161 0.997533
1.03799 1.05788 0.983578 0.997581
1.03399 1.0375 0.999256 0.997367
1.01724 1.02098 1 0.99634
1.00744 1.00694 1.00426 0.996253
0.999137 1 1 0.999137
0.998837 1 1 0.998837
0.998754 1 1 0.998754
0.999191 1 1 0.999191
0.998843 1 1 0.998843
0.999205 1 1 0.999205
0.998763 1 1 0.998763
0.998831 1 1 0.998831
0.998765 1 1 0.998765
0.998701 1 1.00004 0.998656
0.998781 1 1 0.998781
0.999187 1 1 0.999187
0.999723 1 1 0.999723
0.999745 1 1 0.999745
1 1 1 1
0.999753 1 1 0.999753
1 1 1 1
1 1 1 1
1 1 1 1
1 1 1 1
1 1 1 1
1 1 1 1
0.999993 1 1 0.999993
1 1 1 1
0.999948 1 1 0.999948
1 1 1 1
1 1 1 1
1.04498 1.04837 0.999762 0.997004
1.04603 1.05398 0.995264 0.997179
1.04145 1.05232 0.992182 0.997465
1.04258 1.05404 0.991794 0.997316
1.04548 1.05262 0.996116 0.997094
1.04826 1.05293 0.998713 0.996852
1.04482 1.0522 0.995896 0.997083
1.04452 1.05554 0.992257 0.997278
1.04355 1.05562 0.991152 0.997393
1.04199 1.05137 0.993597 0.997462
1.04559 1.05593 0.992957 0.997232
1.04629 1.06208 0.987663 0.997443
1.04549 1.06102 0.987817 0.997517
1.04431 1.05256 0.995046 0.9971
1.04396 1.05254 0.994717 0.997118
1.03798 1.04816 0.992902 0.997359
1.00353 1.0063 1 0.997248
1.00724 1.01043 1.00018 0.996662
1.01695 1.02006 1.00085 0.996106
1.03558 1.04252 0.995962 0.997371
1.03057 1.03492 0.998357 0.997435
1.03167 1.03504 1 0.996743
1.00148 1.00409 1 0.997398
0.998282 1.00063 1 0.997655
1.00573 1.00043 1.00785 0.997475
0.999487 1 1 0.999487
1.00503 1 1.00694 0.998094
1.00263 1 1.00407 0.998566
1.04377 1.05459 0.99253 0.997185
1.04089 1.0556 0.988721 0.997308
1.03219 1.04676 0.988601 0.997454
1.0024 1.00536 1 0.997054
1.0038 1.00618 1.0014 0.996236
1.01071 1.01382 1.0009 0.996036
1.03397 1.04477 0.992039 0.997608
1.02772 1.0314 0.999373 0.997057
0.999723 1 1 0.999723
0.999666 1 1.00076 0.998908
1.00007 1.00279 1 0.997284
1.00884 1.00099 1.01051 0.997357
1.00545 1 1.00777 0.997696
1.00367 1 1.00541 0.99827
1.0439 1.05942 0.98795 0.997364
1.03331 1.05568 0.981335 0.997418
1.02928 1.04671 0.985666 0.997651
1.02392 1.03385 0.992759 0.997618
1.00212 1.0042 1.0012 0.996736
1.00967 1.01205 1.0014 0.996252
1.00361 1.00504 1.00264 0.995945
0.999861 1 1 0.999861
0.99939 1 1 0.99939
0.999132 1 1 0.999132
1.0004 1 1.00194 0.998462
1.00464 1 1.0067 0.99795