# vtk DataFile Version 2.0
Wound Healing Simulation
ASCII
DATASET UNSTRUCTURED_GRID
POINTS 3012 float
69.9759 18.75 4
67.2507 60.3285 4
69.976 18.75 2
73.0099 25.446 4
71.1327 20.9142 4
68.6801 16.6661 4
67.8245 19.9262 3.98034
67.2507 60.3286 2
71.1327 54.0858 4
68.6801 58.3339 4
65.6939 62.2254 4
65.3111 59.0006 3.97936
74.6784 42.3946 4
73.7221 47.2057 4
69.9759 18.75 0
73.0099 25.446 2
68.6801 16.6661 2
71.1327 20.9142 2
67.8251 19.9296 2
74.6792 32.6053 4
73.7222 27.7943 4
72.1454 23.1494 4
70.6133 26.2209 3.97988
68.8848 21.958 3.98073
67.2507 14.6715 4
66.6359 17.9725 3.97932
65.7938 21.0271 3.96961
67.2507 60.3285 0
71.1327 54.0858 2
68.6801 58.3339 2
65.694 62.2255 2
65.3124 58.9966 2
72.1454 51.8506 4
69.9759 56.25 4
68.8355 53.113 3.97992
64.0165 64.0165 4
66.6097 57.1334 3.9799
63.8842 60.7649 3.97952
63.4971 57.7681 3.97078
60.3285 67.2507 4
74.6792 42.3947 2
73.7222 47.2057 2
74.9194 39.9526 4
74.2788 44.8158 4
72.1677 42.0855 3.97964
73.0099 49.554 4
71.2486 46.5979 3.97919
73.0099 25.446 0
71.1327 20.9142 0
68.6801 16.6661 0
67.8245 19.9262 0.0196567
74.6792 32.6053 2
73.7222 27.7943 2
67.2508 14.6715 2
72.1455 23.1494 2
70.6133 26.2215 2
66.6369 17.9768 2
68.8851 21.9602 2
65.7932 21.0281 2
74.9197 35.0474 4
74.2794 30.1841 4
72.1843 32.9434 3.97989
71.2775 28.4314 3.97947
69.8147 24.0595 3.98049
68.3441 26.9523 3.96887
66.7594 22.9345 3.96923
65.694 12.7746 4
65.3222 16.1045 3.97886
64.71 19.198 3.96993
63.8757 22.0413 3.96613
71.1327 54.0858 0
65.6939 62.2254 0
68.6801 58.3339 0
65.3111 59.0006 0.0206391
72.1455 51.8506 2
69.9759 56.25 2
68.8356 53.111 2
64.0165 64.0165 2
66.6106 57.1296 2
63.8859 60.7613 2
63.4966 57.7677 2
62.2254 65.694 4
58.8938 65.4138 3.98914
69.768 50.9888 3.97964
67.7827 55.1671 3.97983
66.6464 52.2078 3.96852
62.3348 62.4267 3.98334
64.6575 56.0292 3.96985
62.1987 59.3975 3.96923
61.816 56.6734 3.966
58.3339 68.6801 4
60.3285 67.2508 2
73.7221 47.2057 0
74.6784 42.3946 0
74.9197 39.9526 2
74.2794 44.8159 2
72.1671 42.0854 2
73.0099 49.554 2
71.2484 46.5977 2
75 37.5 4
72.405 39.8022 3.98029
71.7819 44.3528 3.9796
69.8018 41.7895 3.96912
70.5743 48.8134 3.97928
68.9095 46.0141 3.96867
74.6792 32.6053 0
73.7222 27.7943 0
67.2507 14.6715 0
72.1454 23.1494 0
70.6133 26.2209 0.0201192
68.8848 21.958 0.0192702
66.6359 17.9725 0.0206808
65.7938 21.0271 0.0303933
74.9197 35.0474 2
74.2794 30.1841 2
72.1837 32.9438 2
71.2773 28.4319 2
65.694 12.7745 2
65.3238 16.1091 2
69.8147 24.0607 2
68.3439 26.953 2
64.7094 19.1989 2
66.759 22.9355 2
63.8753 22.0418 2
72.4128 35.2242 3.98034
71.8033 30.6763 3.97991
69.8378 33.2689 3.96926
68.9635 29.0389 3.96891
67.6084 24.913 3.96896
66.1745 27.6397 3.96698
64.0165 10.9835 4
64.7412 23.8356 3.9665
63.8885 14.3287 3.9802
63.5092 17.4525 3.97061
62.8981 20.3276 3.96558
62.0441 22.9613 3.96692
60.6828 11.099 3.98486
57.611 11.4538 3.9765
72.1454 51.8506 0
69.9759 56.25 0
68.8355 53.113 0.0200755
64.0165 64.0165 0
63.8842 60.7649 0.0204831
66.6097 57.1334 0.0201004
63.4971 57.7681 0.0292158
62.2255 65.694 2
58.8953 65.4129 2
69.768 50.9878 2
67.7832 55.164 2
66.6459 52.207 2
62.3368 62.424 2
64.6569 56.0285 2
62.1981 59.3978 2
61.8154 56.6733 2
60.6675 63.9762 3.98607
57.0249 66.7346 3.99059
57.5563 63.6876 3.97874
67.5045 50.1755 3.96826
65.6986 54.1716 3.96896
64.5188 51.3786 3.96577
60.7701 60.9315 3.97268
62.8129 55.0616 3.96581
60.6489 58.1472 3.96422
60.3162 55.7716 3.96476
56.25 69.9759 4
58.3339 68.6801 2
60.3285 67.2507 0
58.9204 9.65697 3.98698
62.2254 9.30607 4
73.0099 49.554 0
74.2788 44.8158 0
71.2486 46.5979 0.020811
72.1677 42.0855 0.0203609
74.9194 39.9526 0
75 37.5 2
72.4049 39.8024 2
71.7818 44.3524 2
69.8013 41.7892 2
70.5741 48.8131 2
68.9095 46.0135 2
72.4883 37.5121 3.97988
70.0392 39.6574 3.96925
69.4279 43.9071 3.96895
67.5778 41.4952 3.96841
68.263 48.1061 3.96834
66.6831 45.4346 3.96758
74.9197 35.0474 0
74.2794 30.1841 0
72.1843 32.9434 0.0201144
71.2775 28.4314 0.0205283
65.694 12.7746 0
65.3222 16.1045 0.0211441
69.8147 24.0595 0.019507
68.3441 26.9523 0.0311293
66.7594 22.9345 0.0307713
64.71 19.198 0.030069
63.8757 22.0413 0.0338681
72.4128 35.2244 2
71.8033 30.6769 2
69.8372 33.2693 2
68.9634 29.0395 2
64.0165 10.9835 2
63.8906 14.3328 2
63.5086 17.4533 2
67.6081 24.9138 2
66.1746 27.6401 2
62.8975 20.328 2
64.7408 23.8361 2
62.0435 22.9618 2
60.6854 11.1017 2
57.6121 11.4522 2
70.0559 35.3923 3.96939
69.4647 31.1501 3.96903
67.6392 33.5933 3.9681
66.7516 29.6272 3.96734
65.5049 25.7047 3.96666
64.0688 28.2715 3.97019
62.3404 12.6562 3.98309
62.7979 24.655 3.96816
62.1949 15.7935 3.97073
61.8045 18.6952 3.96607
61.1766 21.3608 3.96521
60.3298 23.7588 3.96928
59.244 12.7871 3.97356
55.8734 10.2391 3.97879
56.4025 13.1326 3.97314
69.768 50.9888 0.0203584
62.2254 65.694 0
58.8938 65.4138 0.0108566
67.7827 55.1671 0.0201709
66.6464 52.2078 0.031484
62.3348 62.4267 0.0166589
62.1987 59.3975 0.0307714
64.6575 56.0292 0.030155
61.816 56.6734 0.0340024
60.6694 63.9745 2
57.026 66.7341 2
57.5564 63.6894 2
67.5041 50.1747 2
65.6979 54.1707 2
64.5187 51.3782 2
60.7698 60.9321 2
62.8123 55.0613 2
60.6486 58.1473 2
60.3159 55.7713 2
55.0709 67.9315 3.99162
59.2166 62.3598 3.97388
55.8038 64.907 3.98287
56.3236 62.0772 3.97476
65.3067 49.4014 3.96621
63.6949 53.2863 3.96553
62.3735 50.6322 3.96726
59.3265 59.5445 3.96757
61.0534 54.2941 3.96589
59.2707 56.9933 3.96355
59.2197 55.1638 3.96532
48.1015 68.5771 3.98703
50.9487 69.9312 3.99174
54.0858 71.1327 4
56.25 69.976 2
58.3339 68.6801 0
57.0579 8.33676 3.98813
60.3285 7.74928 4
58.9228 9.6586 2
62.2255 9.30602 2
70.5743 48.8134 0.0207209
71.7819 44.3528 0.020397
68.9095 46.0141 0.0313345
69.8018 41.7895 0.0308824
72.405 39.8022 0.0197076
75 37.5 0
72.4878 37.5122 2
70.0391 39.6573 2
69.4278 43.9067 2
67.5777 41.495 2
68.2629 48.1054 2
66.6826 45.4343 2
70.1272 37.5217 3.96927
67.8181 39.5113 3.9685
67.1993 43.4661 3.96796
65.4706 41.2019 3.97274
66.0407 47.4116 3.96694
64.5585 44.8331 3.97084
72.4128 35.2242 0.0196604
71.8033 30.6763 0.0200942
69.8378 33.2689 0.0307387
68.9635 29.0389 0.0310907
64.0165 10.9835 0
63.8885 14.3287 0.019799
63.5092 17.4525 0.0293937
67.6084 24.913 0.0310356
66.1745 27.6397 0.0330167
64.7412 23.8356 0.0335032
62.8981 20.3276 0.0344169
62.0441 22.9613 0.033082
60.6828 11.099 0.0151445
57.611 11.4538 0.0235039
70.0559 35.3925 2
69.4647 31.1505 2
67.6393 33.5935 2
66.7517 29.6276 2
62.3428 12.6601 2
62.1944 15.7936 2
61.8038 18.6955 2
65.5047 25.7052 2
64.0675 28.272 2
61.1756 21.3613 2
62.7972 24.6555 2
60.3295 23.7596 2
59.2452 12.7867 2
56.4032 13.1307 2
55.8742 10.2379 2
67.857 35.5488 3.96847
67.2466 31.6259 3.96777
65.6237 33.9338 3.97267
64.5833 30.2056 3.97113
63.4706 26.4312 3.96925
62.122 28.8037 3.97437
60.7725 14.2314 3.97288
60.9361 25.3681 3.97137
60.6022 17.1427 3.96562
60.1892 19.8373 3.96346
59.5712 22.2917 3.96609
58.8447 24.3624 3.9719
54.0368 9.14009 3.98082
57.906 14.349 3.97334
54.7844 12.0233 3.97422
55.3064 14.6725 3.97141
67.5045 50.1755 0.0317447
57.0249 66.7346 0.00940658
60.6675 63.9762 0.0139348
57.5563 63.6876 0.0212595
65.6986 54.1716 0.0310413
64.5188 51.3786 0.0342302
60.7701 60.9315 0.0273238
60.6489 58.1472 0.0357762
62.8129 55.0616 0.0341894
60.3162 55.7716 0.035245
55.0716 67.9314 2
59.2169 62.3611 2
55.8036 64.908 2
56.323 62.0795 2
65.3065 49.401 2
63.6948 53.2861 2
62.3733 50.6318 2
59.3257 59.5457 2
61.0539 54.294 2
59.2712 56.993 2
59.2206 55.1634 2
53.0429 68.9992 3.99164
53.9662 66.0112 3.98473
57.8759 60.8567 3.97344
54.6821 63.2013 3.97736
55.2054 60.5961 3.97344
63.1129 48.6414 3.96851
61.6934 52.5571 3.96651
60.1489 49.9861 3.96917
58.0032 58.244 3.96491
59.2782 53.9231 3.96698
58.0804 55.7866 3.961
50.1082 67.8555 3.98669
47.4623 66.5772 3.98334
46.0552 69.1561 3.98724
48.1014 68.5778 2
48.8027 70.7224 3.99185
50.9491 69.9311 2
51.8506 72.1454 4
54.0858 71.1327 2
56.25 69.9759 0
55.1027 7.14111 3.98998
58.3339 6.31992 4
57.0597 8.33768 2
60.3286 7.74926 2
58.9204 9.65697 0.0130216
62.2254 9.30607 0
68.263 48.1061 0.0316558
69.4279 43.9071 0.0310525
66.6831 45.4346 0.0324225
67.5778 41.4952 0.0315882
70.0392 39.6574 0.0307507
72.4883 37.5121 0.020116
70.1267 37.5218 2
67.8179 39.5112 2
67.2 43.4658 2
65.4693 41.2017 2
66.0409 47.4112 2
64.5571 44.8327 2
67.9171 37.5222 3.96851
65.7077 39.3661 3.97295
65.0891 43.0138 3.97221
63.6081 40.9165 3.97728
63.8725 46.6985 3.96954
62.6511 44.1924 3.97502
70.0559 35.3923 0.030615
69.4647 31.1501 0.0309718
67.6392 33.5933 0.0318964
66.7516 29.6272 0.0326644
62.3404 12.6562 0.0169067
62.1949 15.7935 0.0292743
61.8045 18.6952 0.0339293
65.5049 25.7047 0.0333364
64.0688 28.2715 0.0298085
62.7979 24.655 0.0318392
61.1766 21.3608 0.0347885
60.3298 23.7588 0.0307202
59.244 12.7871 0.0264391
56.4025 13.1326 0.0268637
55.8734 10.2391 0.0212124
67.8566 35.549 2
67.2471 31.6262 2
65.6225 33.9341 2
64.5822 30.206 2
60.7726 14.2323 2
60.6018 17.1428 2
60.1904 19.8374 2
63.4697 26.4318 2
62.1197 28.8044 2
59.5725 22.2923 2
60.9354 25.3688 2
58.8438 24.3636 2
57.9062 14.3478 2
55.3068 14.6717 2
54.0375 9.13851 2
54.7851 12.021 2
65.7998 35.67 3.97291
65.1031 32.1648 3.97164
64.1623 34.259 3.97716
62.439 30.6588 3.97547
61.5275 27.101 3.97263
60.674 29.1742 3.9773
59.3038 15.6841 3.9693
59.1712 25.8392 3.97474
59.1034 18.3777 3.96418
58.6697 20.8877 3.963
58.154 23.1375 3.96682
57.8128 24.7148 3.97387
52.1118 8.15628 3.98362
53.0565 11.0268 3.97616
56.6676 15.7659 3.9718
53.805 13.7033 3.97398
54.3644 16.0289 3.97291
55.0709 67.9315 0.0083799
65.3067 49.4014 0.0337936
55.8038 64.907 0.0171325
59.2166 62.3598 0.0261183
56.3236 62.0772 0.0252425
63.6949 53.2863 0.0344696
62.3735 50.6322 0.0327398
59.3265 59.5445 0.0324326
59.2707 56.9933 0.0364549
61.0534 54.2941 0.0341071
59.2197 55.1638 0.0346776
53.0434 68.9993 2
53.9661 66.0121 2
57.8751 60.8582 2
54.6815 63.2021 2
55.205 60.598 2
63.1121 48.6409 2
61.6942 52.5569 2
60.1487 49.9854 2
58.0025 58.2452 2
59.2804 53.9228 2
58.0784 55.7854 2
52.0695 66.9983 3.98633
52.9525 64.2139 3.98139
56.6387 59.4717 3.97244
[...]
POINT_DATA 3012
SCALARS Jp_lamdaP float 4
LOOKUP_TABLE default
0.999844 1 1 0.999844
1 1 1 1
0.999849 1 1 0.999849
0.9998 1 1 0.9998
0.999844 1 1 0.999844
0.999838 1 1 0.999838
0.999292 1 1 0.999292
1 1 1 1
1 1 1 1
1 1 1 1
0.999917 1 1 0.999917
0.999449 1 1 0.999449
0.999765 1 1 0.999765
0.999793 1 1 0.999793
0.999849 1 1 0.999849
0.999817 1 1 0.999817
0.999843 1 1 0.999843
0.999853 1 1 0.999853
0.999295 1 1 0.999295
1 1 1 1
0.99978 1 1 0.99978
0.999826 1 1 0.999826
0.999163 1 1 0.999163
0.999262 1 1 0.999262
0.999857 1 1 0.999857
0.999324 1 1 0.999324
0.999186 1.00077 1 0.998422
1 1 1 1
0.999911 1 1 0.999911
0.999925 1 1 0.999925
1 1 1 1
0.999457 1 1 0.999457
0.999817 1 1 0.999817
0.99984 1 1 0.99984
0.999382 1 1 0.999382
1 1 1 1
0.999471 1 1 0.999471
0.999547 1 1 0.999547
0.998459 1 1 0.998459
1 1 1 1
1 1 1 1
0.999894 1 1 0.999894
1 1 1 1
0.999785 1 1 0.999785
0.999091 1 1 0.999091
1 1 1 1
0.999287 1 1 0.999287
0.99983 1 1 0.99983
0.999858 1 1 0.999858
0.999844 1 1 0.999844
0.9993 1 1 0.9993
0.999879 1 1 0.999879
0.999796 1 1 0.999796
0.999867 1 1 0.999867
0.99984 1 1 0.99984
0.999163 1 1 0.999163
0.999328 1 1 0.999328
0.999265 1 1 0.999265
0.999431 1.00103 1 0.998407
1 1 1 1
0.999769 1 1 0.999769
0.999265 1 1 0.999265
0.999127 1 1 0.999127
0.999213 1 1 0.999213
1.00133 1.00321 1 0.998124
0.999898 1.00164 1 0.998257
0.999914 1 1 0.999914
0.999439 1 1 0.999439
0.998692 1.00017 1 0.998526
1.00646 1.00881 1 0.997665
1 1 1 1
1 1 1 1
1 1 1 1
0.999465 1 1 0.999465
1 1 1 1
1 1 1 1
0.999295 1 1 0.999295
0.99998 1 1 0.99998
0.999403 1 1 0.999403
0.999605 1 1 0.999605
0.998456 1 1 0.998456
1 1 1 1
0.999941 1 1 0.999941
0.999234 1 1 0.999234
0.999331 1 1 0.999331
1.00109 1.00305 1 0.998037
0.999756 1 1 0.999756
0.998711 1.00035 1 0.998358
0.998595 1 1 0.998595
0.998508 1.00062 1 0.997892
1 1 1 1
1 1 1 1
1 1 1 1
1 1 1 1
1 1 1 1
0.999889 1 1 0.999889
0.999173 1 1 0.999173
0.999899 1 1 0.999899
0.999238 1 1 0.999238
1 1 1 1
0.999079 1 1 0.999079
0.99926 1 1 0.99926
1.00102 1.00328 1 0.997749
0.999322 1 1 0.999322
1.00246 1.00464 1 0.997832
0.999783 1 1 0.999783
0.99981 1 1 0.99981
0.999876 1 1 0.999876
0.999851 1 1 0.999851
0.999164 1 1 0.999164
0.999269 1 1 0.999269
0.999334 1 1 0.999334
0.999664 1.00127 1 0.998392
1 1 1 1
0.999785 1 1 0.999785
0.999105 1 1 0.999105
0.999125 1 1 0.999125
0.999957 1 1 0.999957
0.999494 1 1 0.999494
0.999215 1 1 0.999215
1.00131 1.00323 1 0.998084
0.998813 1.00031 1 0.998507
1.0001 1.00182 1 0.998286
1.0066 1.00895 1 0.99767
0.999102 1 1 0.999102
0.999105 1 1 0.999105
1.00065 1.00274 1 0.997919
1.00136 1.00336 1 0.998008
1.00101 1.00288 1 0.99814
1.01356 1.01613 1 0.997468
1 1 1 1
1.00863 1.01106 1 0.997597
0.999665 1 1 0.999665
0.998557 1 1 0.998557
1.0046 1.00689 1 0.997733
1.01704 1.01966 1 0.997427
0.999849 1 1 0.999849
0.999768 1 1.00064 0.999124
1 1 1 1
1 1 1 1
0.999302 1 1 0.999302
1 1 1 1
0.999601 1 1 0.999601
0.999408 1 1 0.999408
0.998453 1 1 0.998453
1 1 1 1
0.999957 1 1 0.999957
0.999295 1 1 0.999295
0.999389 1 1 0.999389
1.00064 1.00261 1 0.998039
0.999766 1 1 0.999766
0.998559 1.0002 1 0.998361
0.998594 1 1 0.998594
0.998444 1.00057 1 0.997876
0.999865 1 1 0.999865
0.999986 1 1 0.999986
0.999553 1 1.00023 0.99932
1.00215 1.00424 1 0.997926
0.999692 1.0015 1 0.9982
1.00988 1.01245 1 0.99746
0.99882 1 1 0.99882
1.00203 1.00425 1 0.997786
0.998899 1.00035 1.00057 0.997983
1.00216 1.00446 1 0.997711
1 1 1 1
1 1 1 1
1 1 1 1
0.999909 1 1 0.999909
1 1 1 1
1 1 1 1
1 1 1 1
0.999187 1 1 0.999187
0.999117 1 1 0.999117
1 1 1 1
1 1 1 1
0.999081 1 1 0.999081
0.999211 1 1 0.999211
1.00127 1.00353 1 0.997749
0.999215 1 1 0.999215
1.00252 1.0047 1 0.997832
0.999072 1 1 0.999072
1.00037 1.00268 1 0.9977
1.00181 1.00402 1 0.9978
1.01672 1.0195 1 0.997274
1.00257 1.00472 1 0.997864
1.0172 1.01991 1 0.99734
1 1 1 1
0.9998 1 1 0.9998
0.998931 1 1 0.998931
0.999124 1 1 0.999124
1 1 1 1
0.99955 1 1 0.99955
0.999219 1 1 0.999219
1.00128 1.00324 1 0.998043
1.00031 1.002 1 0.998315
0.998929 1.00044 1 0.998489
1.00675 1.0091 1 0.997674
0.999099 1 1 0.999099
0.999103 1 1 0.999103
1.00051 1.00269 1 0.997824
1.00139 1.00336 1 0.998036
1 1 1 1
0.999664 1 1 0.999664
0.99863 1.00002 1 0.998611
1.00097 1.00284 1 0.998139
1.01345 1.01606 1 0.997431
1.00451 1.00681 1 0.997721
1.00889 1.01128 1 0.997628
1.01659 1.0192 1 0.997434
0.99984 1 1 0.99984
0.999823 1 1.0007 0.999126
1.00004 1.00232 1 0.997722
1.0011 1.00314 1 0.997968
1.01467 1.01734 1 0.997371
1.01396 1.01665 1 0.997357
1.01091 1.01338 1 0.997561
1.02491 1.02763 1 0.997359
0.999769 1 1 0.999769
1.01891 1.02154 1 0.997421
0.998821 1 1.0001 0.998723
1.00047 1.00261 1 0.997858
1.01477 1.01735 1 0.997464
1.01994 1.02255 1 0.997452
0.999459 1 1.00049 0.998972
0.999412 1 1.00009 0.999319
1.00057 1 1.00201 0.998568
0.999254 1 1 0.999254
1 1 1 1
0.999972 1 1 0.999972
0.99936 1 1 0.99936
1.00019 1.00216 1 0.998041
0.999775 1 1 0.999775
0.998634 1 1.00004 0.998593
0.99843 1.00007 1 0.998364
0.998418 1.00056 1 0.99786
0.999884 1 1 0.999884
0.999991 1 1 0.999991
0.999656 1 1.00033 0.999322
1.00187 1.00395 1 0.997926
0.999311 1.00111 1 0.998204
1.00976 1.01233 1 0.997458
0.998843 1 1.00002 0.998823
1.00159 1.0038 1 0.997797
0.998897 1.00045 1.00047 0.997979
1.00231 1.00463 1 0.997696
0.999999 1 1 0.999999
0.999237 1 1.00018 0.999059
0.999783 1 1.00021 0.999571
0.999761 1 1.001 0.99876
1.01329 1.01596 1 0.997377
1.0063 1.00869 1 0.997628
1.01934 1.02212 1 0.997276
0.99874 1.00005 1.00044 0.998244
1.00753 1.00995 1 0.997607
1.0039 1.00467 1.00158 0.997665
1.01051 1.01298 1 0.997564
0.999849 1 1 0.999849
1 1 1 1
1 1 1 1
1 1 1 1
1 1 1 1
0.999953 1 1 0.999953
1 1 1 1
0.999897 1 1 0.999897
1 1 1 1
0.999216 1 1 0.999216
0.999156 1 1 0.999156
1.00265 1.00482 1 0.997831
1.0015 1.00376 1 0.997749
0.999083 1 1 0.999083
1 1 1 1
0.999071 1 1 0.999071
1.00053 1.00284 1 0.9977
1.00204 1.00425 1 0.9978
1.01647 1.01925 1 0.997273
1.00253 1.00467 1 0.997863
1.01717 1.01989 1 0.997338
0.999978 1.00229 1 0.997693
1.01578 1.0186 1 0.99723
1.0173 1.02004 1 0.997315
1.03035 1.03312 1 0.997317
1.01624 1.01894 1 0.997352
1.02911 1.03187 1 0.997326
0.999096 1 1 0.999096
0.999101 1 1 0.999101
1.00038 1.00266 1 0.99773
1.00142 1.00336 1 0.998065
1 1 1 1
0.999663 1 1 0.999663
0.998712 1.00005 1 0.998664
1.00093 1.0028 1 0.998137
1.01334 1.01599 1 0.997394
1.00912 1.01149 1 0.997659
1.00439 1.0067 1 0.99771
1.01624 1.01885 1 0.99744
0.999829 1 1 0.999829
0.999847 1 1.00072 0.999127
0.999997 1.00231 1 0.997696
1.00107 1.00311 1 0.997965
1.01488 1.01756 1 0.997369
1.01411 1.01676 1 0.997392
0.999759 1 1 0.999759
0.998742 1 1.00002 0.99872
1.00109 1.0032 1 0.997893
1.01115 1.01362 1 0.997558
1.0252 1.02791 1 0.997372
1.0141 1.01671 1 0.99743
1.01878 1.02141 1 0.997425
1.02031 1.02292 1 0.997451
0.999326 1 1.00035 0.998974
1.00052 1 1.00195 0.99857
0.999659 1 1.00034 0.999317
1.0148 1.01753 1 0.997317
1.01506 1.01771 1 0.997397
1.02877 1.03155 1 0.997303
1.02689 1.02965 1 0.99732
1.02092 1.02357 1 0.997412
1.02634 1.02889 1 0.99753
0.998893 1 1.00003 0.998868
1.02197 1.02453 1 0.997495
0.998665 1.00049 1 0.998173
1.00632 1.00888 1 0.997456
1.01756 1.02031 1 0.997308
1.01875 1.02119 1 0.99761
0.999489 1 1 0.999489
0.998726 1 1.00019 0.998535
1.00109 1 1.00243 0.998662
0.999626 1 1.00124 0.998392
1.00159 1.00367 1 0.997925
0.999996 1 1 0.999996
0.999903 1 1 0.999903
0.999645 1 1.00032 0.999325
0.998901 1.00069 1 0.998209
1.00962 1.0122 1 0.997455
0.998829 1 1 0.998826
0.998804 1.0005 1.00033 0.997974
1.00112 1.00332 1 0.997807
1.00228 1.00461 1 0.997681
0.999999 1 1 0.999999
0.99925 1 1.00019 0.99906
0.999667 1 1.00009 0.999579
1.00002 1 1.00127 0.998755
1.01314 1.01581 1 0.997374
1.00556 1.00795 1 0.997628
1.0193 1.02208 1 0.997273
0.998712 1.00001 1.00045 0.998249
1.00765 1.01005 1 0.99762
1.00371 1.00433 1.00173 0.997654
1.01061 1.01301 1 0.997631
1 1 1 1
0.999726 1 1 0.999726
0.998925 1 1.0004 0.99853
0.999733 1 1.00073 0.999004
0.999793 1 1.00132 0.998477
1.02266 1.02547 1 0.997256
1.01365 1.01627 1 0.997422
1.0186 1.02136 1 0.997301
1.00145 1.00158 1.00199 0.997878
1.01061 1.0131 1 0.997541
1.00734 1.00912 1.00086 0.997382
0.99983 1 1 0.99983
0.999447 1 1 0.999447
0.999861 1 1 0.999861
0.999851 1 1 0.999851
1 1 1 1
1 1 1 1
1 1 1 1
1 1 1 1
1 1 1 1
0.999983 1 1 0.999983
1 1 1 1
0.999942 1 1 0.999942
1 1 1 1
0.999886 1 1 0.999886
1 1 1 1
1.00244 1.00459 1 0.997862
1.00221 1.00442 1 0.997799
1.01699 1.0197 1 0.997337
1.01619 1.01897 1 0.997271
1.00074 1.00305 1 0.997701
0.999071 1 1 0.999071
1.00009 1.00241 1 0.997693
1.01572 1.01854 1 0.99723
1.01695 1.01969 1 0.997314
1.0306 1.03336 1 0.997331
1.01582 1.01852 1 0.997349
1.02862 1.03138 1 0.997325
1.01527 1.0181 1 0.99722
1.02965 1.03242 1 0.997314
1.03054 1.0333 1 0.997328
1.03374 1.0366 0.999754 0.997492
1.02527 1.02805 1 0.997297
1.02964 1.03216 1 0.997565
0.999982 1.00232 1 0.997671
1.00103 1.00308 1 0.997963
1.0151 1.01778 1 0.997368
1.01424 1.01686 1 0.997428
0.999748 1 1 0.999748
0.998718 1 1 0.998718
1.00169 1.00377 1 0.997927
1.0114 1.01388 1 0.997554
1.02552 1.02821 1 0.997385
1.01865 1.02128 1 0.997428
1.01333 1.01597 1 0.997397
1.02066 1.02326 1 0.997451
0.999231 1 1.00025 0.998977
1.00046 1 1.00189 0.998572
0.999874 1 1.00056 0.999314
1.01494 1.0177 1 0.997282
1.01517 1.01782 1 0.997395
1.02837 1.03113 1 0.99732
1.02714 1.0299 1 0.99732
0.998915 1 1.00005 0.998866
0.999197 1.00103 1 0.998166
1.0057 1.00818 1.00003 0.997506
1.02109 1.02374 1 0.997408
1.0259 1.02841 1 0.997567
1.01761 1.02039 1 0.997275
1.02199 1.02455 1 0.997498
1.01841 1.02082 1 0.997636
0.998838 1 1.0003 0.998537
0.999611 1 1.00124 0.998374
0.999484 1 1 0.999484
1.00102 1 1.00233 0.998689
1.0287 1.03151 1 0.997275
1.02909 1.03184 1 0.997334
1.03067 1.03344 0.999909 0.997414
1.0283 1.03109 0.999743 0.997557
1.02364 1.02615 1 0.997554
1.02483 1.02717 1 0.997722
0.998419 1 1 0.998419
1.01901 1.0213 1 0.997757
0.999316 1.00153 1 0.997794
1.01001 1.01265 1.00018 0.997219
1.01895 1.02176 1 0.997245
1.01768 1.02006 1 0.997673
0.999605 1 1 0.999605
0.999397 1 1.00054 0.998853
0.998349 1 1 0.998349
1.00122 1 1.00278 0.998439
0.99904 1 1.00069 0.998348
1 1 1 1
1.01292 1.01559 1 0.99737
0.999586 1 1 0.999586
0.999338 1 1.00028 0.99906
1.00034 1 1.00159 0.99875
1.00487 1.00726 1 0.997629
1.01932 1.02211 1 0.997271
0.99876 1 1.00051 0.998254
1.00385 1.00428 1.00193 0.997643
1.00787 1.01026 1 0.997634
1.01092 1.01326 1 0.997697
1 1 1 1
0.999733 1 1 0.999733
0.998932 1 1.0004 0.998532
0.999904 1 1.0009 0.999004
1.00016 1 1.00171 0.998456
1.02291 1.02573 1 0.997251
1.01397 1.0166 1 0.997421
1.01852 1.02129 1 0.997291
1.00108 1.00107 1.00213 0.997883
1.0131 1.01559 1 0.99755
1.00663 1.00828 1.00096 0.997401
0.999797 1 1 0.999797
0.999224 1 1 0.999224
0.998695 1 1.00048 0.998219
1.00096 1 1.00229 0.998665
0.999714 1 1.00137 0.998345
1.02252 1.02524 1 0.997346
1.01426 1.01691 1 0.997396
1.01652 1.0191 1 0.997471
1.00162 1.00018 1.00379 0.997653
1.00671 1.00947 1 0.997267
0.999833 1 1 0.999833
0.99938 1 1 0.99938
0.999425 1 1 0.999425
0.999211 1 1 0.999211
0.999456 1 1 0.999456
0.999865 1 1 0.999865
0.999862 1 1 0.999862
1 1 1 1
0.999853 1 1 0.999853
1 1 1 1
1 1 1 1
1 1 1 1
1 1 1 1
1 1 1 1
0.999998 1 1 0.999998
0.999975 1 1 0.999975
1 1 1 1
1 1 1 1
0.999931 1 1 0.999931
1 1 1 1
1.0155 1.0182 1 0.997347
1.01676 1.0195 1 0.997313
1.02824 1.031 1 0.997323
1.03093 1.03368 1 0.997344
1.01559 1.01841 1 0.99723
1.00015 1.00247 1 0.997692
1.01511 1.01794 1 0.997221
1.02964 1.03242 0.999998 0.997307
1.03053 1.03329 1 0.997328
1.03297 1.03602 0.999529 0.99752
1.0258 1.02859 1 0.997292
1.0297 1.03231 0.999894 0.997584
1.02877 1.03157 1 0.997281
1.03183 1.03534 0.999148 0.997457
1.03215 1.03485 0.999811 0.997581
1.03163 1.03572 0.998405 0.997644
1.02662 1.02922 1 0.997477
1.02965 1.03239 0.999576 0.997767
1.01501 1.01782 1 0.997247
1.01526 1.01791 1 0.997393
1.02793 1.03067 1 0.997337
1.02737 1.03013 1 0.997321
0.998909 1 1.00004 0.998865
0.999781 1.00162 1 0.99816
1.00527 1.00755 1.00018 0.997557
1.02126 1.02391 1 0.997404
1.02539 1.02785 1 0.997604
1.02202 1.02457 1 0.997502
1.0177 1.02051 1 0.997243
1.01796 1.02035 1 0.997661
0.998963 1 1.00042 0.998539
0.999568 1 1.00121 0.998355
0.999479 1 1 0.999479
1.00072 1 1.002 0.998716
1.02854 1.03135 1 0.997276
1.02859 1.03136 1 0.997317
1.03054 1.0333 0.999892 0.997438
1.02823 1.03088 0.99989 0.997541
0.998413 1 1 0.998413
0.999572 1.00171 1.00003 0.99784
1.01019 1.01263 1.00039 0.99721
1.02331 1.02585 1 0.997521
1.0246 1.02691 0.999974 0.997775
1.0181 1.02092 1 0.997233
1.0194 1.02169 1 0.997759
1.0189 1.02123 1 0.997718
0.998347 1 1 0.998347
0.998704 1 1.00035 0.998352
1.00187 1 1.00344 0.998432
0.999571 1 1 0.999571
0.999374 1 1.0005 0.998879
1.0308 1.03461 0.998875 0.99744
1.03137 1.03436 0.999626 0.997489
1.02579 1.02942 0.99872 0.997758
1.02188 1.02426 0.999882 0.997796
0.998253 1.00007 1 0.998182
1.02246 1.02459 1 0.997919
0.999508 1.00167 1.00029 0.997558
1.01002 1.01256 1.00051 0.996988
1.01698 1.01982 1 0.997218
0.999649 1 1 0.999649
0.999139 1 1.00004 0.999095
1.00012 1 1.00149 0.998629
0.998305 1 1 0.998305
1.00214 1 1.00389 0.998254
0.998284 1 1 0.998284
1 1 1 1
0.99974 1 1 0.99974
1.02318 1.02601 1 0.997246
1.0001 1 1.00109 0.999004
0.998863 1 1.00033 0.998534
1.00067 1 1.00224 0.998434
1.01413 1.01675 1 0.99742
1.01828 1.02105 1 0.997281
1.00063 1.00046 1.00229 0.997887
1.0054 1.00722 1.00077 0.99742
1.01538 1.01786 1 0.99756
0.999801 1 1 0.999801
0.999235 1 1.00001 0.999227
0.998636 1 1.00041 0.998223
1.00143 1 1.00277 0.998662
0.999818 1 1.00148 0.998339
1.02244 1.02517 1 0.99734
1.01473 1.01739 1 0.997386
1.01633 1.01888 1 0.997496
1.00135 1.00049 1.00324 0.997621
1.00561 1.00834 1.00006 0.997238
0.999355 1 1 0.999355
1.00021 1 1.00137 0.998837
1.00022 1.00016 1.002 0.998064
1.00155 1 1.00316 0.9984
0.999226 1 1.001 0.998233
1.02298 1.02529 1 0.997753
1.01248 1.01522 1 0.997306
1.0132 1.01572 1 0.997521
1.00355 1.00177 1.00433 0.997455
1.00094 1.00391 1 0.997043
0.999836 1 1 0.999836
0.999397 1 1 0.999397
0.999124 1 1 0.999124
0.999404 1 1 0.999404
0.999455 1 1 0.999455
0.999181 1 1 0.999181
0.999037 1 1 0.999037
0.999151 1 1 0.999151
0.99946 1 1 0.99946
0.999862 1 1 0.999862
0.999865 1 1 0.999865
1 1 1 1
0.999864 1 1 0.999864
1 1 1 1
1 1 1 1
1 1 1 1
1 1 1 1
1 1 1 1
1 1 1 1
0.999995 1 1 0.999995
1 1 1 1
0.999967 1 1 0.999967
1 1 1 1
1 1 1 1
1.02628 1.02907 1 0.997286
1.03036 1.03313 1 0.997327
1.02975 1.03245 0.999773 0.997603
1.03211 1.0354 0.99927 0.997549
1.02964 1.03242 1 0.997301
1.01504 1.01787 1 0.997221
1.02905 1.03187 1 0.997264
1.03204 1.03537 0.999327 0.997449
1.03194 1.03457 0.999895 0.997561
1.03108 1.03546 0.998105 0.997659
1.02598 1.02857 1 0.997477
1.0288 1.03163 0.999449 0.997807
1.03139 1.03461 0.999467 0.997424
1.03158 1.03725 0.996881 0.997636
1.03063 1.03508 0.99793 0.997761
1.02685 1.02954 0.999524 0.997859
1.02841 1.03122 1 0.997276
1.02812 1.0309 1 0.997301
1.03042 1.03317 0.999879 0.997462
1.02821 1.03076 1 0.997524
0.998406 1 1 0.998406
0.999532 1.00165 1 0.997886
1.01031 1.01255 1.00058 0.997202
1.02291 1.02549 1 0.997489
1.02443 1.0267 0.999957 0.997828
1.01988 1.02217 1 0.997762
1.01736 1.02019 1 0.99722
1.02012 1.02241 1 0.997762
0.998345 1 1 0.998345
0.998357 1 1 0.998357
1.00312 1 1.0047 0.998426
0.999537 1 1 0.999537
0.999448 1 1.00054 0.998904
1.03131 1.03474 0.999238 0.997443
1.03152 1.03451 0.999622 0.997491
1.02571 1.02904 0.999017 0.997747
0.998559 1.00038 1 0.998175
1.00071 1.00285 1.00026 0.997602
1.00974 1.01203 1.00076 0.996977
1.02255 1.02493 0.999889 0.997785
1.01684 1.0196 1 0.997294
1.02081 1.02305 0.999917 0.997896
0.999663 1 1 0.999663
0.998398 1.0001 1 0.998297
0.998361 1 1 0.998361
1.00202 1 1.00379 0.998239
1.00007 1 1.00143 0.99864
0.999104 1 1.00004 0.999068
1.0312 1.03652 0.997332 0.997525
1.02914 1.03569 0.995989 0.997671
1.02224 1.02767 0.996856 0.997845
1.02653 1.02982 0.998821 0.997989
0.998868 1.00084 1 0.998026
1.01763 1.02009 1 0.997588
1.00237 1.00359 1.00165 0.997136
1.00612 1.00826 1.00104 0.99684
0.999769 1 1 0.999769
0.999251 1 1 0.999251
0.998875 1 1.00007 0.998803
1.00231 1 1.00398 0.998336
0.998201 1 1 0.998201
1.00059 1 1.00247 0.998128
0.999806 1 1 0.999806
0.999231 1 1 0.999231
1.02254 1.02527 1 0.997334
1.00152 1 1.00287 0.998659
0.998497 1 1.00027 0.998228
0.999812 1 1.00148 0.998333
1.01548 1.01815 1 0.997376
1.01637 1.01889 1 0.997521
1.00123 1.00092 1.00273 0.997589
1.00458 1.00712 1.00027 0.997209
0.999358 1 1 0.999358
0.999898 1 1.00106 0.998844
1.00015 1.00009 1.00198 0.998079
1.00176 1 1.00336 0.998405
0.998778 1 1.00048 0.998303
1.02338 1.02568 0.999973 0.997787
1.01184 1.01457 1 0.997312
1.01463 1.01708 1 0.997595
1.00298 1.00098 1.00458 0.99742
1.00161 1.0046 1.00003 0.996995
0.99905 1 1 0.99905
1.00093 1 1.00242 0.998509
1.00204 1.00035 1.00378 0.997913
0.999665 1 1.00155 0.998114
1.02601 1.03419 0.994082 0.998003
1.01801 1.02032 0.999872 0.997862
1.00697 1.00989 1 0.997107
1.00338 1.00207 1.00426 0.99706
0.999414 1 1 0.999414
0.999137 1 1 0.999137
0.998997 1 1 0.998997
0.999455 1 1 0.999455
0.99915 1 1 0.99915
0.999459 1 1 0.999459
0.99902 1 1 0.99902
0.999164 1 1 0.999164
0.99893 1 1 0.99893
0.998983 1 1 0.998983
0.999134 1 1 0.999134
0.999446 1 1 0.999446
0.999855 1 1 0.999855
0.999861 1 1 0.999861
1 1 1 1
0.999865 1 1 0.999865
1 1 1 1
1 1 1 1
1 1 1 1
1 1 1 1
1 1 1 1
1 1 1 1
1 1 1 1
1 1 1 1
0.999991 1 1 0.999991
1 1 1 1
1 1 1 1
1.02524 1.02784 1 0.997476
1.03182 1.03437 1 0.99754
1.02798 1.03088 0.999337 0.997848
1.03055 1.0352 0.997831 0.997673
1.03226 1.0354 0.999522 0.99744
1.02932 1.03216 1 0.997247
1.03101 1.03455 0.99915 0.997427
1.031 1.0365 0.997067 0.997627
1.03021 1.03475 0.99785 0.997761
1.02844 1.03106 0.999597 0.997863
1.03117 1.03692 0.99687 0.997577
1.03121 1.03953 0.994182 0.997804
1.03149 1.03711 0.996682 0.997899
1.03181 1.03487 0.999594 0.997446
1.03167 1.03463 0.999646 0.997492
1.02561 1.02859 0.999365 0.997736
0.999007 1.00084 1 0.998168
1.00193 1.00411 1.00018 0.997645
1.00917 1.01138 1.00085 0.996966
1.02315 1.02555 0.999886 0.997774
1.01923 1.02155 0.999855 0.997874
1.01693 1.01961 1 0.99737
0.998558 1.00027 1 0.998289
0.998438 1 1 0.998438
1.00178 1 1.00356 0.998224
0.999677 1 1 0.999677
0.999544 1 1.00089 0.998652
0.999049 1 1.00001 0.999041
1.03197 1.03684 0.997771 0.997533
1.02946 1.0359 0.996098 0.997679
1.02253 1.02743 0.997384 0.997838
0.999274 1.00126 1 0.998015
1.00192 1.0033 1.0014 0.997222
1.00549 1.00773 1.0009 0.996883
1.02647 1.02948 0.999079 0.997998
1.01811 1.02066 0.999927 0.997575
0.999809 1 1 0.999809
0.999251 1 1 0.999251
0.998235 1 1 0.998233
1.00158 1 1.00338 0.998208
1.00223 1 1.00388 0.998357
0.998824 1 1.00004 0.99878
1.03049 1.03839 0.99466 0.997722
1.02186 1.03281 0.991566 0.99781
1.0226 1.02896 0.995776 0.998035
1.0201 1.02398 0.998182 0.998023
0.999869 1.00122 1.00088 0.997766
1.00526 1.00689 1.0014 0.99699
1.0031 1.00353 1.00264 0.996939
0.999902 1 1 0.999902
0.999534 1 1 0.999534
0.999336 1 1 0.999336
0.998902 1 1 0.998902
0.999699 1 1.00117 0.998526
1.00224 1 1.00401 0.99823
0.998264 1 1 0.998264
1.01482 1 1.01649 0.998362
0.99936 1 1 0.99936
0.999809 1 1.00096 0.998852
1.02368 1.02597 0.999946 0.997822
1.0023 1 1.00389 0.99841
1.00025 1 1.00215 0.998095
0.998407 1 1.00004 0.998372
1.01093 1.01365 1 0.997317
1.01586 1.01824 1 0.997669
1.00261 1.00042 1.00482 0.997386
1.00242 1.00549 1 0.996947
0.999031 1 1 0.999031
1.00114 1 1.00262 0.998523
1.0023 1.00022 1.00415 0.997939
0.999502 1 1.00136 0.998144
1.02741 1.03511 0.994529 0.998017
1.01782 1.02009 0.999949 0.997825
1.00801 1.01089 1 0.997146
1.00349 1.00271 1.00377 0.997017
0.999156 1 1.00031 0.998842
1.02466 1.03685 0.990203 0.998015
1.00107 1 1.00281 0.998262
1.00116 1.00082 1.00268 0.99767
1.02489 1.02862 0.998262 0.998105
1.00823 1.01103 1 0.997237
1.00476 1.00466 1.00323 0.996874
0.99915 1 1 0.99915
0.998993 1 1 0.998993
0.998899 1 1 0.998899
0.999458 1 1 0.999458
0.999177 1 1 0.999177
0.999004 1 1 0.999004
0.999444 1 1 0.999444
0.999137 1 1 0.999137
0.998916 1 1 0.998916
0.999004 1 1 0.999004
0.998858 1 1 0.998858
0.998882 1 1 0.998882