# vtk DataFile Version 2.0
Wound Healing Simulation
ASCII
DATASET UNSTRUCTURED_GRID
POINTS 3012 float
69.9759 18.75 4
67.2507 60.3285 4
69.976 18.75 2
73.0099 25.446 4
71.1327 20.9142 4
68.6801 16.6661 4
67.824 19.9264 3.97896
67.2507 60.3286 2
71.1327 54.0858 4
68.6801 58.3339 4
65.6939 62.2254 4
65.3106 59.0005 3.97804
74.6784 42.3946 4
73.7221 47.2057 4
69.9759 18.75 0
73.0099 25.446 2
68.6801 16.6661 2
71.1327 20.9142 2
67.8246 19.9299 2
74.6792 32.6053 4
73.7222 27.7943 4
72.1454 23.1494 4
70.6129 26.2212 3.9786
68.8843 21.9581 3.97942
67.2507 14.6715 4
66.6355 17.9727 3.97807
65.7926 21.0279 3.9681
67.2507 60.3285 0
71.1327 54.0858 2
68.6801 58.3339 2
65.694 62.2255 2
65.312 58.9959 2
72.1454 51.8506 4
69.9759 56.25 4
68.8349 53.1131 3.97863
64.0165 64.0165 4
66.6092 57.1333 3.97866
63.8837 60.7646 3.97834
63.496 57.7669 3.96887
60.3285 67.2507 4
74.6792 42.3947 2
73.7222 47.2057 2
74.9194 39.9526 4
74.2788 44.8158 4
72.1673 42.0856 3.97875
73.0099 49.554 4
71.2481 46.598 3.97808
73.0099 25.446 0
71.1327 20.9142 0
68.6801 16.6661 0
67.824 19.9264 0.0210421
74.6792 32.6053 2
73.7222 27.7943 2
67.2508 14.6715 2
72.1455 23.1494 2
70.6128 26.2217 2
66.6364 17.9772 2
68.8845 21.9603 2
65.7918 21.0289 2
74.9197 35.0474 4
74.2794 30.1841 4
72.184 32.9437 3.97905
71.2771 28.4317 3.97836
69.8142 24.0597 3.97919
68.343 26.953 3.96753
66.7582 22.9352 3.96778
65.694 12.7746 4
65.3217 16.1049 3.97735
64.709 19.1991 3.96852
63.8572 22.0478 3.96541
71.1327 54.0858 0
65.6939 62.2254 0
68.6801 58.3339 0
65.3106 59.0005 0.0219622
72.1455 51.8506 2
69.9759 56.25 2
68.835 53.111 2
64.0165 64.0165 2
66.6101 57.1291 2
63.8856 60.7605 2
63.495 57.7666 2
62.2254 65.694 4
58.8933 65.4136 3.98797
69.7675 50.9889 3.97836
67.7822 55.1671 3.97873
66.645 52.2077 3.96732
62.334 62.4258 3.98089
64.6564 56.0286 3.96855
62.1981 59.3958 3.96849
61.8132 56.671 3.96441
58.3339 68.6801 4
60.3285 67.2508 2
73.7221 47.2057 0
74.6784 42.3946 0
74.9197 39.9526 2
74.2794 44.8159 2
72.1667 42.0855 2
73.0099 49.554 2
71.2479 46.5977 2
75 37.5 4
72.4047 39.8024 3.9795
71.7816 44.3529 3.97874
69.8009 41.7899 3.96828
70.5738 48.8135 3.97802
68.9084 46.0144 3.96765
74.6792 32.6053 0
73.7222 27.7943 0
67.2507 14.6715 0
72.1454 23.1494 0
70.6129 26.2212 0.0213996
68.8843 21.9581 0.0205836
66.6355 17.9727 0.0219251
65.7926 21.0279 0.0318976
74.9197 35.0474 2
74.2794 30.1841 2
72.1834 32.9441 2
71.2769 28.4322 2
65.694 12.7745 2
65.3233 16.1099 2
69.8142 24.0609 2
68.3427 26.9537 2
64.7081 19.2 2
66.7577 22.9361 2
63.8573 22.0482 2
72.4125 35.2245 3.97952
71.803 30.6766 3.97901
69.8371 33.2695 3.96844
68.9625 29.0396 3.96775
67.6072 24.9137 3.96761
66.1536 27.645 3.96702
64.0165 10.9835 4
64.7204 23.842 3.96598
63.8878 14.3296 3.97819
63.5081 17.4542 3.96904
62.8823 20.334 3.96461
62.009 22.9736 3.9672
60.6823 11.1 3.98254
57.6098 11.4557 3.97392
72.1454 51.8506 0
69.9759 56.25 0
68.8349 53.1131 0.0213707
64.0165 64.0165 0
63.8837 60.7646 0.0216617
66.6092 57.1333 0.0213403
63.496 57.7669 0.0311268
62.2255 65.694 2
58.8952 65.412 2
69.7674 50.9879 2
67.7827 55.1639 2
66.6444 52.2069 2
62.3362 62.4223 2
64.6553 56.028 2
62.1972 59.3965 2
61.8127 56.6711 2
60.6669 63.9752 3.98355
57.0243 66.7347 3.98955
57.556 63.6862 3.97607
67.5031 50.1755 3.96713
65.6974 54.1713 3.96779
64.4956 51.3733 3.96547
60.7692 60.9268 3.97125
62.8023 55.0582 3.96475
60.6481 58.1447 3.96442
60.301 55.7656 3.9642
56.25 69.9759 4
58.3339 68.6801 2
60.3285 67.2507 0
58.9199 9.6578 3.98492
62.2254 9.30607 4
73.0099 49.554 0
74.2788 44.8158 0
71.2481 46.598 0.0219158
72.1673 42.0856 0.0212518
74.9194 39.9526 0
75 37.5 2
72.4045 39.8025 2
71.7814 44.3525 2
69.8003 41.7896 2
70.5736 48.8131 2
68.9083 46.0138 2
72.4881 37.5123 3.97913
70.0384 39.6579 3.96848
69.427 43.9075 3.96817
67.5588 41.4942 3.96914
68.2617 48.1063 3.96723
66.6596 45.4314 3.96799
74.9197 35.0474 0
74.2794 30.1841 0
72.184 32.9437 0.0209473
71.2771 28.4317 0.0216367
65.694 12.7746 0
65.3217 16.1049 0.0226547
69.8142 24.0597 0.0208056
68.343 26.953 0.0324657
66.7582 22.9352 0.0322169
64.709 19.1991 0.0314805
63.8572 22.0478 0.0345923
72.4124 35.2246 2
71.803 30.6772 2
69.8364 33.27 2
68.9624 29.0402 2
64.0165 10.9835 2
63.8899 14.3343 2
63.5071 17.455 2
67.6069 24.9145 2
66.1537 27.6454 2
62.8826 20.3343 2
64.7201 23.8425 2
62.0081 22.9742 2
60.6851 11.1037 2
57.6117 11.4552 2
70.0551 35.3929 3.96852
69.464 31.1507 3.96813
67.621 33.5959 3.9687
66.7303 29.6319 3.96746
65.4837 25.7107 3.96651
64.0299 28.2812 3.97123
62.3396 12.6576 3.98023
62.7605 24.6667 3.96865
62.1939 15.7968 3.96948
61.7993 18.6999 3.96417
61.1438 21.3737 3.96518
60.283 23.7757 3.97006
59.2427 12.7968 3.97198
55.8723 10.2413 3.97651
56.4002 13.1444 3.97118
69.7675 50.9889 0.0216367
62.2254 65.694 0
58.8933 65.4136 0.0120341
67.7822 55.1671 0.0212684
66.645 52.2077 0.0326772
62.334 62.4258 0.0191113
62.1981 59.3958 0.0315076
64.6564 56.0286 0.0314472
61.8132 56.671 0.035588
60.6689 63.9729 2
57.0258 66.7337 2
57.5565 63.6868 2
67.5027 50.1748 2
65.6966 54.1705 2
64.4957 51.3729 2
60.7682 60.928 2
62.803 55.0582 2
60.6478 58.1449 2
60.3015 55.7656 2
55.0703 67.9316 3.99104
59.2156 62.3533 3.97243
55.803 64.9053 3.98037
56.3216 62.0691 3.97345
65.2815 49.3962 3.96623
63.6752 53.2814 3.96499
62.332 50.6224 3.96757
59.3243 59.5394 3.96525
61.0229 54.2856 3.9659
59.2632 56.9883 3.96313
59.1926 55.1544 3.96639
48.1008 68.5767 3.98656
50.948 69.9313 3.99136
54.0858 71.1327 4
56.25 69.976 2
58.3339 68.6801 0
57.0572 8.33704 3.98648
60.3285 7.74928 4
58.9228 9.66027 2
62.2255 9.30602 2
70.5738 48.8135 0.0219814
71.7816 44.3529 0.0212605
68.9084 46.0144 0.0323488
69.8009 41.7899 0.0317198
72.4047 39.8024 0.0204973
75 37.5 0
72.4875 37.5124 2
70.0383 39.6578 2
69.4268 43.9071 2
67.5586 41.494 2
68.2615 48.1056 2
66.6588 45.431 2
70.1265 37.5223 3.96856
67.8008 39.5113 3.96925
67.1775 43.4639 3.9685
65.4353 41.1994 3.975
66.0161 47.4073 3.96724
64.5151 44.8265 3.97196
72.4125 35.2245 0.0204827
71.803 30.6766 0.0209933
69.8371 33.2695 0.0315599
68.9625 29.0396 0.032252
64.0165 10.9835 0
63.8878 14.3296 0.0218093
63.5081 17.4542 0.0309605
67.6072 24.9137 0.0323918
66.1536 27.645 0.0329771
64.7204 23.842 0.0340178
62.8823 20.334 0.03539
62.009 22.9736 0.0328014
60.6823 11.1 0.0174556
57.6098 11.4557 0.0260839
70.055 35.3931 2
69.4638 31.1512 2
67.621 33.5961 2
66.7301 29.6323 2
62.3421 12.6623 2
62.1929 15.7972 2
61.7996 18.7 2
65.4836 25.7112 2
64.0282 28.2818 2
61.1425 21.3742 2
62.7595 24.6673 2
60.2826 23.7765 2
59.2443 12.7952 2
56.4012 13.1419 2
55.8738 10.2409 2
67.8409 35.5505 3.96919
67.2279 31.6294 3.96828
65.5869 33.9385 3.97441
64.544 30.214 3.97209
63.4315 26.4421 3.96992
62.0686 28.8172 3.97559
60.7711 14.2387 3.97091
60.8869 25.3841 3.97241
60.6005 17.1475 3.96511
60.1612 19.8501 3.96287
59.5262 22.3096 3.96663
58.7877 24.3834 3.97295
54.0359 9.14252 3.97861
57.9027 14.3601 3.97015
54.7823 12.0316 3.9733
55.3028 14.6871 3.96842
67.5031 50.1755 0.0328723
57.0243 66.7347 0.0104548
60.6669 63.9752 0.0164542
57.556 63.6862 0.0239339
65.6974 54.1713 0.0322111
64.4956 51.3733 0.0345258
60.7692 60.9268 0.0287458
60.6481 58.1447 0.0355778
62.8023 55.0582 0.0352519
60.301 55.7656 0.0357968
55.0715 67.9311 2
59.2163 62.3559 2
55.8034 64.9058 2
56.3209 62.0715 2
65.2814 49.3958 2
63.6755 53.2812 2
62.3314 50.622 2
59.3232 59.5404 2
61.0237 54.2857 2
59.2659 56.9887 2
59.1947 55.1545 2
53.0423 68.9995 3.99122
53.9654 66.0104 3.98318
57.8733 60.8495 3.97082
54.6806 63.1983 3.97588
55.2017 60.5872 3.97088
63.0694 48.6322 3.96912
61.6562 52.5476 3.9667
60.0943 49.9726 3.96969
58 58.2389 3.96589
59.2366 53.9112 3.96751
58.0519 55.7756 3.96177
50.1075 67.8551 3.98603
47.4619 66.576 3.98247
46.0546 69.1557 3.98692
48.1009 68.5774 2
48.802 70.7225 3.99151
50.9488 69.9311 2
51.8506 72.1454 4
54.0858 71.1327 2
56.25 69.9759 0
55.102 7.14151 3.98884
58.3339 6.31992 4
57.0597 8.33864 2
60.3286 7.74926 2
58.9199 9.6578 0.0150794
62.2254 9.30607 0
68.2617 48.1063 0.0327685
69.427 43.9075 0.0318298
66.6596 45.4314 0.0320051
67.5588 41.4942 0.0308602
70.0384 39.6579 0.0315204
72.4881 37.5123 0.0208691
70.1259 37.5224 2
67.8 39.5111 2
67.1782 43.4637 2
65.4333 41.1991 2
66.0163 47.4069 2
64.5131 44.8259 2
67.9013 37.523 3.96926
65.6751 39.3655 3.97566
65.0478 43.009 3.97356
63.5566 40.9106 3.97696
63.8287 46.6903 3.97042
62.594 44.1826 3.97598
70.0551 35.3929 0.0314802
69.464 31.1507 0.031872
67.621 33.5959 0.031298
66.7303 29.6319 0.0325412
62.3396 12.6576 0.0197736
62.1939 15.7968 0.0305228
61.7993 18.6999 0.0358337
65.4837 25.7107 0.0334875
64.0299 28.2812 0.0287685
62.7605 24.6667 0.0313471
61.1438 21.3737 0.0348157
60.283 23.7757 0.02994
59.2427 12.7968 0.0280195
56.4002 13.1444 0.0288176
55.8723 10.2413 0.0234904
67.84 35.5506 2
67.2285 31.6297 2
65.5843 33.9389 2
64.5419 30.2145 2
60.771 14.2396 2
60.5997 17.1478 2
60.162 19.8502 2
63.4303 26.4427 2
62.0663 28.8181 2
59.5275 22.3102 2
60.8861 25.3849 2
58.7869 24.3848 2
57.9032 14.358 2
55.3035 14.6863 2
54.0372 9.14098 2
54.7835 12.0288 2
65.7681 35.6731 3.97532
65.0638 32.1715 3.97287
64.1128 34.2667 3.97706
62.3897 30.671 3.97659
61.4735 27.1163 3.97359
60.6126 29.192 3.97702
59.3006 15.6928 3.96623
59.1121 25.8597 3.97578
59.0931 18.3872 3.96227
58.629 20.9059 3.96339
58.0998 23.1597 3.96768
57.7542 24.7388 3.97433
52.1112 8.1578 3.98204
53.0548 11.0312 3.97438
56.6625 15.7796 3.96824
53.8017 13.7152 3.97184
54.3581 16.0453 3.96797
55.0703 67.9316 0.00896103
65.2815 49.3962 0.0337695
55.803 64.9053 0.0196292
59.2156 62.3533 0.027567
56.3216 62.0691 0.0265485
63.6752 53.2814 0.0350109
62.332 50.6224 0.0324283
59.3243 59.5394 0.0347457
59.2632 56.9883 0.0368673
61.0229 54.2856 0.0340953
59.1926 55.1544 0.0336055
53.0432 68.9992 2
53.9658 66.011 2
57.8725 60.8518 2
54.6803 63.1991 2
55.2013 60.589 2
63.0684 48.6317 2
61.6566 52.5475 2
60.0943 49.972 2
57.9991 58.2398 2
59.2392 53.9112 2
58.0496 55.7744 2
52.0688 66.9979 3.98551
52.9517 64.2114 3.97975
56.6343 59.4629 3.968
53.6739 61.604 3.97536
54.2428 59.289 3.97233
[...]
POINT_DATA 3012
SCALARS Jp_lamdaP float 4
LOOKUP_TABLE default
0.999795 1 1 0.999795
1 1 1 1
0.999801 1 1 0.999801
0.999746 1 1 0.999746
0.999795 1 1 0.999795
0.999785 1 1 0.999785
0.999155 1 1 0.999155
1 1 1 1
1 1 1 1
1 1 1 1
0.999868 1 1 0.999868
0.999298 1 1 0.999298
0.999718 1 1 0.999718
0.999741 1 1 0.999741
0.999802 1 1 0.999802
0.999766 1 1 0.999766
0.99979 1 1 0.99979
0.999807 1 1 0.999807
0.999158 1 1 0.999158
1 1 1 1
0.999726 1 1 0.999726
0.999775 1 1 0.999775
0.999024 1 1 0.999024
0.999127 1 1 0.999127
0.9998 1 1 0.9998
0.999182 1 1 0.999182
1.00256 1.00441 1 0.998155
1 1 1 1
0.999887 1 1 0.999887
0.9999 1 1 0.9999
1 1 1 1
0.999307 1 1 0.999307
0.999767 1 1 0.999767
0.999791 1 1 0.999791
0.999263 1 1 0.999263
1 1 1 1
0.999349 1 1 0.999349
0.999399 1 1 0.999399
0.998959 1.00079 1 0.99817
1 1 1 1
1 1 1 1
0.999869 1 1 0.999869
1 1 1 1
0.999737 1 1 0.999737
0.998952 1 1 0.998952
1 1 1 1
0.999164 1 1 0.999164
0.999783 1 1 0.999783
0.999814 1 1 0.999814
0.999791 1 1 0.999791
0.999163 1 1 0.999163
0.999853 1 1 0.999853
0.999744 1 1 0.999744
0.999811 1 1 0.999811
0.999792 1 1 0.999792
0.999024 1 1 0.999024
0.999186 1 1 0.999186
0.999129 1 1 0.999129
1.00294 1.00481 1 0.998141
1 1 1 1
0.999718 1 1 0.999718
0.999156 1 1 0.999156
0.998988 1 1 0.998988
0.999078 1 1 0.999078
1.00543 1.00759 1 0.997863
1.00383 1.00585 1 0.99799
0.999861 1 1 0.999861
0.999293 1 1 0.999293
1.00062 1.00237 1 0.998256
1.01416 1.01686 1 0.997338
1 1 1 1
1 1 1 1
1 1 1 1
0.999315 1 1 0.999315
1 1 1 1
1 1 1 1
0.99915 1 1 0.99915
0.999961 1 1 0.999961
0.999256 1 1 0.999256
0.999474 1 1 0.999474
0.998646 1.00048 1 0.998167
1 1 1 1
1.00012 1 1.00022 0.9999
0.999084 1 1 0.999084
0.999186 1 1 0.999186
1.00555 1.00783 1 0.997744
0.99966 1 1 0.99966
1.00089 1.00282 1 0.998069
0.99837 1.00006 1 0.998309
1.0009 1.00336 1 0.997547
1 1 1 1
1 1 1 1
1 1 1 1
1 1 1 1
1 1 1 1
0.999865 1 1 0.999865
0.999048 1 1 0.999048
0.999874 1 1 0.999874
0.999102 1 1 0.999102
1 1 1 1
0.998947 1 1 0.998947
0.999142 1 1 0.999142
1.00471 1.00725 1 0.997481
0.999201 1 1 0.999201
1.00696 1.00944 1 0.997552
0.999738 1 1 0.999738
0.999761 1 1 0.999761
0.99982 1 1 0.99982
0.999806 1 1 0.999806
0.999024 1 1 0.999024
0.999134 1 1 0.999134
0.999192 1 1 0.999192
1.00331 1.0052 1 0.998126
1 1 1 1
0.999736 1 1 0.999736
0.998973 1 1 0.998973
0.998986 1 1 0.998986
0.99993 1 1 0.99993
0.999356 1 1 0.999356
0.999079 1 1 0.999079
1.00543 1.00762 1 0.997821
1.00118 1.00295 1 0.998238
1.00407 1.00607 1 0.99802
1.01409 1.01679 1 0.997343
0.99897 1 1 0.99897
0.998971 1 1 0.998971
1.00428 1.00662 1 0.997673
1.0055 1.00777 1 0.997748
1.00521 1.00735 1 0.997876
1.02196 1.02485 1 0.997175
1 1 1 1
1.01674 1.01951 1 0.99728
0.9996 1 1.00008 0.999521
0.998827 1.00056 1 0.998269
1.01109 1.01373 1 0.997395
1.02408 1.02703 1 0.997123
1.00005 1 1.00029 0.999759
1.00187 1 1.00295 0.998915
1 1 1 1
1 1 1 1
0.999156 1 1 0.999156
1 1 1 1
0.999459 1 1 0.999459
0.999261 1 1 0.999261
0.998342 1.00018 1 0.998164
1 1 1 1
0.999934 1 1.00001 0.99992
0.99916 1 1 0.99916
0.999257 1 1 0.999257
1.00497 1.00725 1 0.997746
0.999668 1 1.00001 0.999655
1.00022 1.00215 1 0.998072
0.998318 1.00001 1 0.998308
1.00077 1.00325 1 0.99753
0.999845 1 1.00006 0.999789
0.999966 1 1 0.999966
1.00038 1 1.00124 0.999143
1.00686 1.00925 1 0.997635
1.00343 1.00553 1 0.997908
1.0181 1.02102 1 0.99714
0.998585 1 1.00003 0.998554
1.0068 1.00938 1 0.997449
1.00045 1.00225 1.00057 0.997637
1.00739 1.01006 1 0.997355
1 1 1 1
1 1 1 1
1 1 1 1
0.999848 1 1 0.999848
1 1 1 1
1 1 1 1
1 1 1 1
0.999039 1 1 0.999039
0.99898 1 1 0.99898
1 1 1 1
1 1 1 1
0.998949 1 1 0.998949
0.99908 1 1 0.99908
1.0051 1.00764 1 0.997481
0.999065 1 1 0.999065
1.00708 1.00955 1 0.997551
0.998942 1 1 0.998942
1.00376 1.00633 1 0.997437
1.00594 1.00843 1 0.997527
1.02478 1.02786 1 0.997012
1.00723 1.00968 1 0.997578
1.02653 1.02956 1 0.997058
1 1 1 1
0.999754 1 1 0.999754
0.998774 1 1 0.998774
0.998984 1 1 0.998984
1 1 1 1
0.99942 1 1 0.99942
0.999082 1 1 0.999082
1.0054 1.00764 1 0.997779
1.00434 1.0063 1 0.99805
1.00172 1.00351 1 0.998219
1.01401 1.0167 1 0.997348
0.998967 1 1 0.998967
0.998968 1 1 0.998968
1.00413 1.00658 1 0.997568
1.00553 1.00777 1 0.997776
1 1 1 1
0.999534 1 1 0.999533
0.999406 1.00108 1 0.99833
1.00515 1.00729 1 0.997873
1.02183 1.02476 1 0.997142
1.01056 1.01321 1 0.997384
1.01694 1.01968 1 0.997314
1.02365 1.02659 1 0.99713
1.00031 1 1.00056 0.999748
1.00174 1 1.00283 0.998917
1.0033 1.00586 1 0.997459
1.00485 1.00715 1 0.997716
1.02311 1.02608 1 0.997103
1.0224 1.0254 1 0.99708
1.01931 1.02211 1 0.997265
1.03263 1.03561 1 0.997114
1.00002 1 1.00037 0.999648
1.02598 1.02892 1 0.997142
0.998581 1.00003 1.00011 0.998441
1.00477 1.00728 1 0.997509
1.02174 1.02468 1 0.997134
1.02605 1.02894 1 0.997195
1.00159 1 1.00286 0.998735
0.999904 1 1.00076 0.999142
1.00214 1 1.00383 0.998315
0.999106 1 1 0.999106
1 1 1 1
0.999939 1 1 0.999939
0.999215 1 1 0.999215
1.0044 1.00667 1 0.997748
0.99969 1 1.00003 0.999661
0.998347 1 1.00004 0.998307
0.999482 1.00141 1 0.998075
1.00067 1.00317 1 0.997513
0.999934 1 1.00012 0.99981
0.999975 1 1 0.999975
1.00059 1 1.00144 0.999145
1.00654 1.00893 1 0.997634
1.00266 1.00476 1 0.997912
1.01817 1.02109 1 0.997137
0.998706 1 1.00015 0.998558
1.00707 1.00964 1 0.997458
0.999985 1.00189 1.00047 0.997632
1.00805 1.01073 1 0.997341
0.999992 1 1 0.999992
0.999503 1 1.00067 0.998832
1.00021 1 1.00076 0.999443
1.00093 1 1.0024 0.998538
1.0221 1.0251 1 0.99707
1.0131 1.01585 1 0.997296
1.02634 1.02944 1 0.996986
0.999169 1.00076 1.00049 0.997923
1.01479 1.01756 1 0.997282
1.00826 1.00939 1.00158 0.997305
1.01802 1.02086 1 0.997215
0.999801 1 1 0.999801
1 1 1 1
1 1 1 1
1 1 1 1
1 1 1 1
0.999917 1 1 0.999917
1 1 1 1
1.00003 1 1.00019 0.999835
1 1 1 1
0.999066 1 1 0.999066
0.999013 1 1 0.999013
1.00729 1.00976 1 0.997551
1.00547 1.00801 1 0.997481
0.998951 1 1 0.998951
1 1 1 1
0.998941 1 1 0.998941
1.00399 1.00657 1 0.997437
1.0063 1.0088 1 0.997526
1.02454 1.02761 1 0.997011
1.00724 1.00968 1 0.997576
1.02643 1.02946 1 0.997056
1.00319 1.00578 1 0.997431
1.02332 1.02643 1 0.996973
1.02628 1.02932 1 0.997044
1.03894 1.04193 1 0.997127
1.02548 1.0285 1 0.997058
1.03678 1.0398 1 0.997101
0.998965 1 1 0.998965
0.998965 1 1 0.998965
1.00398 1.00654 1 0.997462
1.00556 1.00778 1 0.997804
1 1 1 1
0.999544 1 1 0.999544
0.999941 1.00155 1 0.998392
1.00509 1.00724 1 0.997871
1.02172 1.02468 1 0.99711
1.01709 1.0198 1 0.997348
1.01003 1.01269 1 0.997373
1.02334 1.02627 1 0.997138
1.00036 1 1.00062 0.999737
1.00153 1 1.00261 0.998919
1.00325 1.00583 1 0.997434
1.00481 1.00712 1 0.997713
1.02316 1.02613 1 0.997108
1.02255 1.02551 1 0.997111
0.999941 1 1.0003 0.999637
0.998633 1.00013 1.00006 0.998438
1.0054 1.00788 1 0.997544
1.0196 1.0224 1 0.997258
1.03272 1.03568 1 0.997136
1.02112 1.02409 1 0.997103
1.02593 1.02886 1 0.997146
1.02642 1.02931 1 0.997195
1.00087 1 1.00213 0.998738
1.00217 1 1.00386 0.998317
1.0004 1 1.00126 0.999139
1.02243 1.02545 1 0.997056
1.02359 1.02654 1 0.997131
1.03742 1.04044 1 0.997099
1.03399 1.037 1 0.997095
1.02853 1.03146 1 0.997159
1.03252 1.03528 0.999984 0.997345
0.998997 1 1.00039 0.998606
1.02804 1.03085 1 0.997267
0.999693 1.00187 1 0.997829
1.01294 1.01589 1 0.997091
1.02327 1.02634 1 0.997005
1.02326 1.02594 1 0.997387
0.999447 1 1.0001 0.999346
0.99876 1 1.0005 0.998259
1.00363 1 1.00521 0.99843
1.00029 1 1.00218 0.99812
1.00624 1.00862 1 0.997634
0.999985 1 1 0.999985
0.999831 1 1 0.999831
1.0005 1 1.00135 0.999147
1.0019 1.004 1 0.997917
1.01822 1.02114 1 0.997133
0.998765 1 1.0002 0.998562
0.999247 1.00129 1.00033 0.997628
1.00744 1.01 1 0.997467
1.00832 1.01103 1 0.997327
0.999995 1 1 0.999995
0.999833 1 1.001 0.998832
0.999865 1 1.00041 0.999452
1.00127 1 1.00274 0.998533
1.02198 1.02499 1 0.997066
1.01298 1.01572 1 0.997296
1.02617 1.02927 1 0.996983
0.99877 1.00039 1.00045 0.997928
1.0149 1.01766 1 0.997293
1.00778 1.00877 1.00173 0.997294
1.0182 1.02098 1 0.997285
0.999999 1 1 0.999999
0.999636 1 1 0.999636
0.999084 1 1.00082 0.998262
1.00083 1 1.00201 0.998822
1.00016 1 1.00192 0.998244
1.03014 1.03325 1 0.996987
1.02074 1.02369 1 0.997112
1.02405 1.02708 1 0.997042
1.00378 1.00425 1.00199 0.997547
1.01641 1.01923 1 0.997232
1.01126 1.01341 1.00086 0.997024
0.999777 1 1 0.999777
0.999349 1 1 0.999349
0.999817 1 1 0.999817
0.999803 1 1 0.999803
1 1 1 1
1 1 1 1
1 1 1 1
1 1 1 1
1 1 1 1
0.999966 1 1 0.999966
1 1 1 1
0.999903 1 1 0.999903
1 1 1 1
1.00035 1 1.00053 0.999823
1 1 1 1
1.0072 1.00964 1 0.997575
1.0066 1.0091 1 0.997526
1.02612 1.02915 1 0.997055
1.02428 1.02735 1 0.997009
1.0043 1.00688 1 0.997437
0.99894 1 1 0.99894
1.00335 1.00594 1 0.997431
1.02318 1.02629 1 0.996974
1.02586 1.0289 1 0.997042
1.03852 1.04176 0.999749 0.997144
1.02495 1.02798 1 0.997055
1.03651 1.03953 1 0.997099
1.02266 1.02577 1 0.996964
1.03775 1.04128 0.999467 0.997138
1.03864 1.04164 1 0.997123
1.03869 1.04297 0.998552 0.997342
1.03304 1.0361 1 0.997049
1.03671 1.03964 0.999787 0.997389
1.00323 1.00584 1 0.997409
1.00479 1.0071 1 0.997709
1.02326 1.02622 1 0.997113
1.02269 1.02562 1 0.997141
0.999856 1 1.00023 0.999626
0.998712 1.00028 1 0.998436
1.00619 1.00863 1 0.99758
1.01991 1.02272 1 0.997251
1.03285 1.03579 1 0.997158
1.02587 1.02881 1 0.99715
1.02039 1.02339 1 0.997073
1.02677 1.02966 1 0.997194
1.00031 1 1.00158 0.99874
1.00228 1 1.00397 0.99832
1.0008 1 1.00166 0.999137
1.0225 1.02555 1 0.997023
1.02379 1.02674 1 0.997129
1.03707 1.04009 0.999974 0.997126
1.03409 1.03711 1 0.997092
0.999043 1 1.00044 0.998604
1.00114 1.00332 1 0.997823
1.01172 1.01459 1.00003 0.997141
1.02874 1.03168 1 0.997147
1.03251 1.03522 0.999995 0.997389
1.02351 1.02662 1 0.99697
1.02785 1.03066 1 0.997271
1.02342 1.02608 1 0.997417
0.99906 1 1.0008 0.99826
1.00034 1 1.00224 0.9981
0.999561 1 1.00022 0.999341
1.00331 1 1.00485 0.998461
1.03748 1.04051 1 0.997091
1.03651 1.03951 1 0.997121
1.0359 1.04042 0.998393 0.997258
1.0339 1.03754 0.999087 0.997396
1.02981 1.03254 1 0.997354
1.0309 1.03414 0.999299 0.997562
0.998311 1.00021 1 0.998103
1.0242 1.02671 0.999985 0.997572
1.0037 1.0063 1 0.997416
1.01463 1.01765 1.00018 0.99686
1.02459 1.02772 1 0.996954
1.0232 1.02581 1 0.997456
0.999497 1 1 0.999497
1.0009 1 1.00225 0.998649
0.998048 1 1 0.998048
1.00279 1 1.0046 0.998196
0.999467 1 1.0014 0.998072
0.999998 1 1 0.999998
1.02181 1.02482 1 0.997061
0.999544 1 1.00008 0.99946
1.00046 1 1.00163 0.998833
1.00174 1 1.00322 0.998527
1.01287 1.01562 1 0.997296
1.02605 1.02916 1 0.996981
0.998581 1.00014 1.00051 0.997934
1.00802 1.00882 1.00193 0.997284
1.01508 1.01783 1 0.997304
1.01866 1.02136 1 0.997355
1 1 1 1
0.999644 1 1 0.999644
0.999017 1 1.00075 0.998264
1.00109 1 1.00227 0.998822
1.00055 1 1.00234 0.998223
1.03025 1.03337 1 0.996981
1.02096 1.02392 1 0.99711
1.02394 1.02698 1 0.997031
1.00277 1.00309 1.00213 0.997553
1.01907 1.02189 1 0.997237
1.01087 1.0129 1.00096 0.997043
0.999732 1 1 0.999732
0.999418 1 1.00033 0.999085
0.999112 1.00069 1.00048 0.997944
1.0022 1 1.00374 0.998468
0.999744 1 1.00161 0.998133
1.02849 1.03147 1 0.997113
1.01946 1.02242 1 0.99711
1.02234 1.02518 1 0.997226
1.00229 1.00116 1.00379 0.997343
1.00916 1.01227 1 0.996928
0.99978 1 1 0.99978
0.99928 1 1 0.99928
0.999326 1 1 0.999326
0.999097 1 1 0.999097
0.999359 1 1 0.999359
0.999824 1 1 0.999824
0.999818 1 1 0.999818
1 1 1 1
0.999805 1 1 0.999805
1 1 1 1
1 1 1 1
1 1 1 1
1 1 1 1
1 1 1 1
0.999993 1 1 0.999993
0.999954 1 1 0.999954
1 1 1 1
1 1 1 1
0.999889 1 1 0.999889
1 1 1 1
1.02452 1.02755 1 0.997052
1.02567 1.02872 1 0.997041
1.03638 1.0394 1 0.997097
1.03817 1.04167 0.999469 0.997161
1.02292 1.02602 1 0.996974
1.00344 1.00602 1 0.997431
1.02241 1.02553 1 0.996965
1.03778 1.04124 0.999536 0.997132
1.03846 1.04146 1 0.997123
1.03814 1.04282 0.998136 0.997374
1.03365 1.03672 1 0.997043
1.03625 1.0395 0.999466 0.997411
1.0371 1.0405 0.999624 0.997106
1.03768 1.0429 0.997675 0.997311
1.03747 1.04153 0.998674 0.997429
1.03544 1.0422 0.995995 0.997504
1.03324 1.03606 1 0.997274
1.0352 1.03934 0.998402 0.99761
1.02245 1.02553 1 0.996989
1.02395 1.0269 1 0.997127
1.03664 1.03965 0.999948 0.997153
1.03415 1.03717 1 0.997088
0.999052 1 1.00045 0.998602
1.00237 1.00456 1 0.997816
1.01054 1.0132 1.00018 0.997191
1.02896 1.03191 1 0.997135
1.03243 1.03509 1 0.997432
1.02767 1.03048 1 0.997274
1.02377 1.02692 1 0.996936
1.02331 1.02593 1 0.997446
0.999316 1 1.00106 0.998262
1.00039 1 1.00231 0.998079
0.999726 1 1.00039 0.999336
1.00271 1 1.00422 0.998492
1.03744 1.04046 1 0.997091
1.03605 1.03906 1 0.997101
1.0357 1.04013 0.998443 0.997289
1.03435 1.03764 0.999449 0.997378
0.998576 1.00048 1 0.998096
1.00342 1.00594 1.00003 0.997462
1.01498 1.01779 1.00039 0.996851
1.0293 1.03207 1 0.997314
1.03037 1.03354 0.999305 0.997618
1.02305 1.02619 1 0.996941
1.02497 1.02747 0.999999 0.997574
1.02408 1.02664 1 0.997506
0.998222 1.00018 1 0.998045
0.999158 1.00017 1.00091 0.998079
1.00342 1 1.00524 0.998189
0.999461 1 1 0.999461
1.0008 1 1.00212 0.998679
1.03613 1.04186 0.997193 0.9973
1.03528 1.03994 0.998178 0.997341
1.03144 1.0371 0.996929 0.997606
1.02686 1.03032 0.999016 0.997632
0.999091 1.00126 1 0.997835
1.02856 1.03089 0.999997 0.997746
1.00284 1.0054 1.00029 0.997164
1.01311 1.01602 1.00051 0.996634
1.02117 1.02431 1 0.99693
0.999575 1 1 0.999575
0.999611 1 1.00068 0.998928
1.00158 1 1.00317 0.998414
0.998333 1.00034 1 0.997994
1.00335 1 1.00537 0.997988
0.998306 1.00007 1.00025 0.997989
1 1 1 1
0.999652 1 1 0.999652
1.03039 1.03351 1 0.996976
1.00142 1 1.0026 0.998822
0.998784 1 1.00052 0.998266
1.00109 1 1.0029 0.998202
1.02106 1.02402 1 0.997109
1.02367 1.02673 1 0.99702
1.0015 1.00166 1.00229 0.997558
1.00976 1.01195 1.00077 0.997061
1.0216 1.02443 1 0.997242
0.999737 1 1 0.999737
0.999319 1 1.00023 0.999089
0.998724 1.00037 1.00041 0.997943
1.00288 1 1.00443 0.998463
0.999751 1 1.00162 0.998132
1.02851 1.03149 1 0.997107
1.01978 1.02275 1 0.9971
1.02205 1.02486 1 0.997252
1.00232 1.00177 1.00324 0.997305
1.00798 1.01106 1.00006 0.996899
0.999247 1 1 0.999247
1.00134 1 1.00266 0.998675
1.00091 1.00111 1.002 0.997808
1.00223 1 1.00403 0.998211
0.999023 1 1.001 0.998029
1.02867 1.03127 0.999923 0.997556
1.01767 1.02072 1 0.997017
1.01867 1.02146 1 0.997272
1.00396 1.00249 1.00433 0.997142
1.00168 1.00499 1 0.99671
0.999783 1 1 0.999783
0.999298 1 1 0.999298
0.999014 1 1 0.999014
0.999303 1 1 0.999303
0.999359 1 1 0.999359
0.999066 1 1 0.999066
0.998928 1 1 0.998928
0.999025 1 1 0.999025
0.999364 1 1 0.999364
0.999819 1 1 0.999819
0.999824 1 1 0.999824
1 1 1 1
0.99982 1 1 0.99982
1 1 1 1
1 1 1 1
1 1 1 1
1 1 1 1
1 1 1 1
1 1 1 1
0.999987 1 1 0.999987
1 1 1 1
0.999941 1 1 0.999941
1 1 1 1
1 1 1 1
1.03421 1.03728 1 0.997037
1.03806 1.04105 1 0.997122
1.03577 1.03934 0.999131 0.997432
1.03756 1.04261 0.997742 0.997406
1.03787 1.04126 0.99962 0.997126
1.0223 1.02542 1 0.996966
1.03758 1.04082 0.999806 0.997087
1.03793 1.04292 0.997908 0.997303
1.03762 1.04144 0.998922 0.99741
1.03477 1.04185 0.995673 0.997517
1.03261 1.03543 1 0.997273
1.03392 1.03844 0.997987 0.997653
1.03733 1.04233 0.997916 0.997285
1.03611 1.04355 0.995368 0.997496
1.03539 1.04265 0.995415 0.997614
1.0324 1.03659 0.998256 0.997693
1.03752 1.04054 1 0.997091
1.03561 1.03864 1 0.99708
1.03555 1.03989 0.998501 0.997321
1.03487 1.03782 0.999797 0.99736
0.998942 1.00085 1 0.998089
1.00307 1.00558 1 0.997508
1.01527 1.01789 1.00058 0.996841
1.02872 1.03153 1 0.997275
1.02982 1.03296 0.999284 0.997674
1.02592 1.02841 1 0.997576
1.02182 1.02497 1 0.996927
1.02544 1.02795 1 0.997556
0.998552 1.00051 1 0.998043
0.998783 1.00029 1.00041 0.998085
1.00479 1 1.00662 0.998182
0.999428 1 1 0.999425
1.00083 1 1.00213 0.998709
1.03662 1.04211 0.997424 0.997303
1.0353 1.04006 0.998087 0.997339
1.0313 1.03652 0.997361 0.997595
0.999995 1.00217 1 0.997828
1.00347 1.00602 1.00026 0.997209
1.01264 1.0153 1.00076 0.996623
1.02744 1.03089 0.999038 0.99762
1.02174 1.02479 1 0.997018
1.02609 1.02861 0.999821 0.997719
0.999594 1 1 0.999594
0.999002 1.00102 1 0.997983
0.998248 1 1.00015 0.998098
1.00372 1 1.00576 0.997972
1.00174 1 1.00332 0.99843
0.999588 1 1.00069 0.998898
1.0345 1.0424 0.995027 0.997387
1.03338 1.0426 0.993617 0.997523
1.02566 1.03437 0.993881 0.997693
1.02943 1.03486 0.99692 0.997835
1.00062 1.00297 1 0.997661
1.02133 1.02402 1 0.997371
1.00294 1.00457 1.00165 0.996734
1.00696 1.00947 1.00104 0.996478
0.999733 1 1 0.999733
0.99913 1 1 0.99913
0.999768 1 1.00116 0.998613
1.00339 1 1.00531 0.998088
0.998878 1.00084 1.00018 0.997854
1.00357 1 1.00577 0.997815
0.999742 1 1 0.999742
0.999145 1 1.00005 0.999092
1.02871 1.0317 1 0.9971
1.00315 1 1.0047 0.998459
0.998255 1.00004 1.00027 0.997943
0.999652 1 1.00152 0.998131
1.02038 1.02336 1 0.997089
1.02203 1.02482 1 0.997278
1.00256 1.00257 1.00273 0.997268
1.00685 1.00974 1.00027 0.99687
0.99925 1 1 0.99925
1.00117 1 1.0025 0.998678
1.00055 1.00076 1.00198 0.99782
1.00228 1 1.00407 0.998217
0.998587 1 1.00048 0.998112
1.02917 1.03188 0.999777 0.997596
1.01702 1.02005 1 0.997027
1.02006 1.02278 1 0.997346
1.00336 1.00168 1.00458 0.997104
1.00224 1.00557 1.00003 0.996655
0.998928 1 1 0.998928
1.00229 1 1.00397 0.998323
1.00244 1.001 1.00378 0.997663
0.999463 1 1.00156 0.997906
1.03031 1.04218 0.990754 0.997833
1.02295 1.02548 0.999872 0.99766
1.01005 1.01329 1 0.996794
1.00363 1.00265 1.00426 0.996732
0.999316 1 1 0.999316
0.999027 1 1 0.999027
0.998903 1 1 0.998903
0.999358 1 1 0.999358
0.999035 1 1 0.999035
0.999363 1 1 0.999363
0.998916 1 1 0.998916
0.999038 1 1 0.999038
0.998853 1 1 0.998853
0.998854 1 1 0.998854
0.998997 1 1 0.998997
0.999348 1 1 0.999348
0.999807 1 1 0.999807
0.999818 1 1 0.999818
1 1 1 1
0.999824 1 1 0.999824
1 1 1 1
1 1 1 1
1 1 1 1
1 1 1 1
1 1 1 1
1 1 1 1
0.999999 1 1 0.999999
1 1 1 1
0.999981 1 1 0.999981
1 1 1 1
1 1 1 1
1.03188 1.0347 1 0.997273
1.03786 1.04143 0.999177 0.997392
1.0327 1.03758 0.997601 0.997696
1.03412 1.04153 0.995343 0.99753
1.03819 1.04295 0.998133 0.997295
1.03802 1.04107 1 0.997067
1.03711 1.04225 0.997779 0.997285
1.03566 1.043 0.995473 0.997487
1.03469 1.042 0.995363 0.997614
1.03414 1.03816 0.99843 0.9977
1.03595 1.04323 0.995564 0.997439
1.03654 1.04757 0.991784 0.997659
1.03691 1.04569 0.993842 0.997746
1.03708 1.04233 0.997651 0.997305
1.03532 1.04015 0.998006 0.997336
1.03122 1.0359 0.997897 0.997584
1.00081 1.00299 1 0.997821
1.00407 1.00666 1.00018 0.997254
1.01185 1.01444 1.00085 0.996612
1.02805 1.03145 0.999091 0.997608
1.02345 1.02609 0.999731 0.997692
1.02195 1.02492 1 0.997106
0.999453 1.00148 1 0.997972
0.998207 1 1 0.998207
1.00392 1 1.00597 0.997957
0.999614 1 1 0.999614
1.00129 1 1.00285 0.998446
0.999476 1 1.00061 0.998868
1.03521 1.04272 0.995385 0.997394
1.03326 1.04267 0.993426 0.997531
1.02597 1.03402 0.99452 0.997685
1.00037 1.00272 1 0.99765
1.00248 1.00427 1.0014 0.996817
1.00661 1.0092 1.0009 0.996531
1.02955 1.03466 0.997217 0.997842
1.0213 1.02412 0.999886 0.997356
0.999779 1 1 0.999779
0.99913 1 1 0.99913
0.998299 1.0004 1 0.997899
1.00534 1.0001 1.00734 0.997919
1.00346 1 1.00536 0.998117
0.999716 1 1.00113 0.998589
1.03458 1.04539 0.992058 0.997579
1.02576 1.04053 0.988119 0.997655
1.02419 1.0345 0.992128 0.997883
1.021 1.02693 0.996354 0.997861
1.00096 1.00271 1.0009 0.997348
1.00593 1.00787 1.0014 0.996676
1.00281 1.00365 1.00264 0.99653
0.999887 1 1 0.999887
0.999479 1 1 0.999479
0.999258 1 1 0.999258
0.998804 1 1.00006 0.998741
1.00047 1 1.00216 0.998312
1.00586 1 1.0079 0.99798
0.997952 1.00001 1 0.997937
1.02383 1.00004 1.02574 0.998096
0.999252 1 1 0.999252
1.00124 1 1.00256 0.998681
1.02959 1.03241 0.999632 0.997635
1.00273 1 1.00452 0.998223
1.00041 1.00043 1.00215 0.997833
0.998229 1 1.00004 0.998194
1.01602 1.01904 1 0.997037
1.02124 1.02388 1 0.997419
1.00292 1.00105 1.00482 0.997067
1.00294 1.00636 1 0.9966
0.998966 1 1.00006 0.998904
1.00235 1 1.00402 0.998338
1.00271 1.00087 1.00415 0.997691
0.999334 1 1.0014 0.99794
1.03187 1.04321 0.991258 0.99785
1.02276 1.02526 0.999949 0.997617
1.01113 1.01434 1 0.996835
1.00427 1.00382 1.00377 0.996684
0.999373 1 1.00067 0.998706