# vtk DataFile Version 2.0
Wound Healing Simulation
ASCII
DATASET UNSTRUCTURED_GRID
POINTS 3012 float
69.9759 18.75 4
67.2507 60.3285 4
69.976 18.75 2
73.0099 25.446 4
71.1327 20.9142 4
68.6801 16.6661 4
67.8258 19.9261 3.98313
67.2507 60.3286 2
71.1327 54.0858 4
68.6801 58.3339 4
65.6939 62.2254 4
65.3124 59.0015 3.98288
74.6784 42.3946 4
73.7221 47.2057 4
69.9759 18.75 0
73.0099 25.446 2
68.6801 16.6661 2
71.1327 20.9142 2
67.8262 19.929 2
74.6792 32.6053 4
73.7222 27.7943 4
72.1454 23.1494 4
70.6144 26.2209 3.98291
68.886 21.9581 3.98363
67.2507 14.6715 4
66.6371 17.9719 3.98223
65.7971 21.0254 3.97426
67.2507 60.3285 0
71.1327 54.0858 2
68.6801 58.3339 2
65.694 62.2255 2
65.3135 58.9983 2
72.1454 51.8506 4
69.9759 56.25 4
68.8365 53.1131 3.98264
64.0165 64.0165 4
66.6108 57.1338 3.98272
63.886 60.7664 3.98504
63.5002 57.771 3.97498
60.3285 67.2507 4
74.6792 42.3947 2
73.7222 47.2057 2
74.9194 39.9526 4
74.2788 44.8158 4
72.1683 42.0856 3.9817
73.0099 49.554 4
71.2495 46.5982 3.98184
73.0099 25.446 0
71.1327 20.9142 0
68.6801 16.6661 0
67.8258 19.9261 0.0168728
74.6792 32.6053 2
73.7222 27.7943 2
67.2508 14.6715 2
72.1455 23.1494 2
70.6144 26.2214 2
66.6379 17.9753 2
68.8863 21.96 2
65.7965 21.0258 2
74.9197 35.0474 4
74.2794 30.1841 4
72.185 32.9432 3.98209
71.2784 28.4313 3.98232
69.8158 24.0596 3.98345
68.347 26.9511 3.97275
66.7626 22.9331 3.9736
65.694 12.7746 4
65.3239 16.1032 3.98338
64.7132 19.1958 3.97423
63.8853 22.0366 3.97024
71.1327 54.0858 0
65.6939 62.2254 0
68.6801 58.3339 0
65.3124 59.0015 0.0171229
72.1455 51.8506 2
69.9759 56.25 2
68.8368 53.1111 2
64.0165 64.0165 2
66.6116 57.1305 2
63.8876 60.7641 2
63.4998 57.7713 2
62.2254 65.694 4
58.8949 65.4144 3.99148
69.7691 50.989 3.98261
67.7838 55.1673 3.98257
66.6492 52.2091 3.97252
62.3365 62.4278 3.98777
64.6605 56.0311 3.97445
62.2029 59.4041 3.97674
61.8208 56.6784 3.9702
58.3339 68.6801 4
60.3285 67.2508 2
73.7221 47.2057 0
74.6784 42.3946 0
74.9197 39.9526 2
74.2794 44.8159 2
72.168 42.0856 2
73.0099 49.554 2
71.2494 46.5979 2
75 37.5 4
72.4056 39.8022 3.98192
71.7827 44.3529 3.98188
69.8039 41.7895 3.97172
70.5753 48.8136 3.98219
68.9122 46.0147 3.97171
74.6792 32.6053 0
73.7222 27.7943 0
67.2507 14.6715 0
72.1454 23.1494 0
70.6144 26.2209 0.0170914
68.886 21.9581 0.0163721
66.6371 17.9719 0.0177699
65.7971 21.0254 0.0257376
74.9197 35.0474 2
74.2794 30.1841 2
72.1846 32.9434 2
71.2784 28.4316 2
65.694 12.7745 2
65.3252 16.1061 2
69.8159 24.0607 2
68.3469 26.9514 2
64.7126 19.196 2
66.7622 22.9336 2
63.8847 22.0366 2
72.4134 35.2241 3.982
71.8041 30.6762 3.98221
69.84 33.268 3.97218
68.9662 29.0378 3.97244
67.6114 24.9118 3.97308
66.1935 27.6346 3.96904
64.0165 10.9835 4
64.7551 23.8305 3.96971
63.8906 14.3267 3.98609
63.513 17.4478 3.97555
62.9041 20.3233 3.96988
62.089 22.9462 3.96868
60.6843 11.0975 3.98862
57.6124 11.4478 3.98141
72.1454 51.8506 0
69.9759 56.25 0
68.8365 53.1131 0.017356
64.0165 64.0165 0
63.886 60.7664 0.0149576
66.6108 57.1338 0.0172782
63.5002 57.771 0.0250234
62.2255 65.694 2
58.8958 65.414 2
69.7692 50.9879 2
67.7843 55.1644 2
66.6488 52.2085 2
62.338 62.4264 2
64.66 56.031 2
62.2028 59.4049 2
61.8203 56.6791 2
60.6691 63.9772 3.98973
57.0259 66.735 3.99215
57.5583 63.6922 3.98393
67.5074 50.1767 3.97197
65.7015 54.1729 3.97313
64.5359 51.3841 3.96838
60.7733 60.9379 3.97959
62.8177 55.0655 3.97023
60.6567 58.157 3.9713
60.3228 55.7795 3.96964
56.25 69.9759 4
58.3339 68.6801 2
60.3285 67.2507 0
58.9215 9.65579 3.98963
62.2254 9.30607 4
73.0099 49.554 0
74.2788 44.8158 0
71.2495 46.5982 0.0181572
72.1683 42.0856 0.0182968
74.9194 39.9526 0
75 37.5 2
72.4055 39.8024 2
71.7826 44.3527 2
69.8037 41.7892 2
70.5753 48.8132 2
68.9122 46.0143 2
72.4889 37.512 3.98181
70.0411 39.6571 3.97167
69.4303 43.9074 3.97176
67.5963 41.4969 3.9688
68.2659 48.1071 3.97174
66.7086 45.4391 3.96845
74.9197 35.0474 0
74.2794 30.1841 0
72.185 32.9432 0.0179063
71.2784 28.4313 0.0176833
65.694 12.7746 0
65.3239 16.1032 0.0166214
69.8158 24.0596 0.0165531
68.347 26.9511 0.0272505
66.7626 22.9331 0.0264048
64.7132 19.1958 0.0257684
63.8853 22.0366 0.0297568
72.4133 35.2241 2
71.804 30.6765 2
69.8397 33.2683 2
68.9662 29.038 2
64.0165 10.9835 2
63.892 14.3289 2
63.5127 17.4474 2
67.6111 24.9121 2
66.1934 27.6347 2
62.9035 20.3232 2
64.7547 23.8306 2
62.0884 22.9462 2
60.6855 11.0988 2
57.6126 11.447 2
70.0578 35.3916 3.97191
69.4671 31.1491 3.9721
67.6546 33.5907 3.96908
66.7712 29.6227 3.96891
65.5228 25.6994 3.9693
64.1389 28.2572 3.96922
62.3421 12.6547 3.98762
62.8531 24.6394 3.96871
62.1996 15.7849 3.97881
61.8106 18.6887 3.96948
61.2115 21.3466 3.96768
60.4132 23.7339 3.96856
59.2465 12.7793 3.98012
55.8744 10.2339 3.98327
56.4049 13.1163 3.97762
69.7691 50.989 0.017394
62.2254 65.694 0
58.8949 65.4144 0.00852448
67.7838 55.1673 0.0174278
66.6492 52.2091 0.0274768
62.3365 62.4278 0.0122276
62.2029 59.4041 0.0232637
64.6605 56.0311 0.0255456
61.8208 56.6784 0.0298046
60.6703 63.9764 2
57.0264 66.7349 2
57.5584 63.6935 2
67.5072 50.1762 2
65.7011 54.1725 2
64.5355 51.384 2
60.7734 60.9393 2
62.8172 55.066 2
60.6565 58.1581 2
60.3225 55.7797 2
55.0715 67.9319 3.99249
59.2194 62.3662 3.98099
55.8052 64.9104 3.98673
56.3267 62.0894 3.97938
65.3304 49.4073 3.96826
63.7034 53.2906 3.96861
62.4335 50.6478 3.96742
59.3326 59.5555 3.97552
61.0712 54.3037 3.96902
59.2851 57.0049 3.96887
59.2344 55.1734 3.97149
48.1032 68.5786 3.98834
50.9491 69.9316 3.99271
54.0858 71.1327 4
56.25 69.976 2
58.3339 68.6801 0
57.0588 8.33578 3.99043
60.3285 7.74928 4
58.9226 9.65663 2
62.2255 9.30602 2
70.5753 48.8136 0.0178051
71.7827 44.3529 0.018116
68.9122 46.0147 0.0282928
69.8039 41.7895 0.0282822
72.4056 39.8022 0.0180804
75 37.5 0
72.4887 37.5121 2
70.041 39.657 2
69.4302 43.9071 2
67.5961 41.4967 2
68.2659 48.1066 2
66.7086 45.4389 2
70.1292 37.5213 3.97196
67.8336 39.5118 3.96889
67.2226 43.4692 3.96863
65.5376 41.2076 3.97007
66.0675 47.4171 3.96836
64.6381 44.845 3.96908
72.4134 35.2241 0.0179985
71.8041 30.6762 0.0177921
69.84 33.268 0.0278177
68.9662 29.0378 0.0275583
64.0165 10.9835 0
63.8906 14.3267 0.0139118
63.513 17.4478 0.0244526
67.6114 24.9118 0.0269187
66.1935 27.6346 0.0309569
64.7551 23.8305 0.030293
62.9041 20.3233 0.0301204
62.089 22.9462 0.0313164
60.6843 11.0975 0.0113778
57.6124 11.4478 0.0185894
70.0578 35.3918 2
69.467 31.1494 2
67.6543 33.5908 2
66.7712 29.6228 2
62.3434 12.6565 2
62.1993 15.7841 2
61.8103 18.6879 2
65.5225 25.6995 2
64.1385 28.2573 2
61.2109 21.3466 2
62.8527 24.6394 2
60.4134 23.734 2
59.2466 12.7788 2
56.4047 13.1153 2
55.8746 10.233 2
67.8697 35.5472 3.96908
67.2642 31.6223 3.96891
65.6855 33.9278 3.97024
64.653 30.1936 3.96929
63.5326 26.4161 3.96897
62.2326 28.7826 3.97214
60.7758 14.2237 3.98002
61.0309 25.3436 3.96998
60.6115 17.1301 3.97416
60.2141 19.824 3.96578
59.6458 22.2663 3.96616
58.9545 24.33 3.97041
54.0376 9.13636 3.98465
57.91 14.3345 3.97842
54.7865 12.0148 3.97905
55.3113 14.652 3.97618
67.5074 50.1767 0.0280269
57.0259 66.735 0.00785263
60.6691 63.9772 0.0102721
57.5583 63.6922 0.0160654
65.7015 54.1729 0.0268708
64.5359 51.3841 0.0316208
60.7733 60.9379 0.0204079
60.6567 58.157 0.0287033
62.8177 55.0655 0.0297747
60.3228 55.7795 0.0303635
55.0719 67.932 2
59.2196 62.3675 2
55.8052 64.9114 2
56.3267 62.0908 2
65.3302 49.4072 2
63.703 53.2907 2
62.4339 50.6477 2
59.3327 59.557 2
61.0711 54.3038 2
59.2851 57.0046 2
59.2342 55.1732 2
53.0433 68.9998 3.99261
53.9677 66.0131 3.98772
57.8802 60.8689 3.97796
54.6841 63.2076 3.9825
55.2103 60.6137 3.9772
63.181 48.6567 3.96798
61.7353 52.5707 3.96735
60.2432 50.0084 3.96848
58.0154 58.257 3.97162
59.3175 53.9375 3.96786
58.1182 55.7988 3.96611
50.11 67.8566 3.98824
47.4636 66.5808 3.98553
46.0568 69.1579 3.98837
48.1032 68.5792 2
48.8032 70.7229 3.99281
50.9495 69.9317 2
51.8506 72.1454 4
54.0858 71.1327 2
56.25 69.9759 0
55.1034 7.14031 3.99119
58.3339 6.31992 4
57.0598 8.33619 2
60.3286 7.74926 2
58.9215 9.65579 0.0103664
62.2254 9.30607 0
68.2659 48.1071 0.0282562
69.4303 43.9074 0.0282412
66.7086 45.4391 0.0315497
67.5963 41.4969 0.0312015
70.0411 39.6571 0.0283315
72.4889 37.512 0.0181856
70.129 37.5212 2
67.8335 39.5117 2
67.2225 43.469 2
65.5372 41.2075 2
66.0674 47.417 2
64.6377 44.8448 2
67.9301 37.5216 3.96917
65.7694 39.3687 3.97032
65.1619 43.0225 3.96967
63.706 40.9257 3.97277
63.9488 46.7126 3.96848
62.7694 44.2098 3.97248
70.0578 35.3916 0.0280933
69.4671 31.1491 0.0278998
67.6546 33.5907 0.0309177
66.7712 29.6227 0.0310886
62.3421 12.6547 0.0123843
62.1996 15.7849 0.0211905
61.8106 18.6887 0.0305241
65.5228 25.6994 0.0306963
64.1389 28.2572 0.0307811
62.8531 24.6394 0.0312947
61.2115 21.3466 0.0323196
60.4132 23.7339 0.0314351
59.2465 12.7793 0.0198834
56.4049 13.1163 0.0223817
55.8744 10.2339 0.0167265
67.8696 35.5473 2
67.2641 31.6223 2
65.6853 33.9278 2
64.6527 30.1936 2
60.7757 14.2231 2
60.6111 17.1289 2
60.2141 19.8236 2
63.5323 26.4161 2
62.2318 28.7828 2
59.6474 22.2663 2
61.0307 25.3438 2
58.9541 24.3305 2
57.9095 14.3336 2
55.3108 14.6513 2
54.0378 9.13558 2
54.7865 12.0136 2
65.8591 35.6667 3.97026
65.1711 32.1555 3.96968
64.2488 34.2505 3.97257
62.5531 30.64 3.97248
61.6266 27.0782 3.97078
60.8047 29.1473 3.97528
59.3102 15.6708 3.9775
59.2943 25.8066 3.97311
59.1182 18.3619 3.97065
58.7229 20.8644 3.96452
58.2597 23.1034 3.96635
57.9299 24.6772 3.97215
52.1123 8.15429 3.98579
53.058 11.0197 3.98076
56.6751 15.7473 3.97751
53.8085 13.6867 3.97669
54.3739 16.0072 3.97714
55.0715 67.9319 0.007509
65.3304 49.4073 0.0317428
55.8052 64.9104 0.0132694
59.2194 62.3662 0.0190106
56.3267 62.0894 0.0206159
63.7034 53.2906 0.031395
62.4335 50.6478 0.0325765
59.3326 59.5555 0.0244828
59.2851 57.0049 0.0311348
61.0712 54.3037 0.0309771
59.2344 55.1734 0.0285125
53.0437 68.9998 2
53.9676 66.0138 2
57.88 60.8701 2
54.684 63.2088 2
55.2103 60.6152 2
63.1808 48.6566 2
61.7353 52.5707 2
60.2431 50.0082 2
58.0152 58.2589 2
59.3178 53.9372 2
58.1179 55.7982 2
52.0711 66.9997 3.9881
52.9539 64.2189 3.98453
56.6466 59.4858 3.97578
[...]
POINT_DATA 3012
SCALARS Jp_lamdaP float 4
LOOKUP_TABLE default
0.999941 1 1 0.999941
1 1 1 1
0.999943 1 1 0.999943
0.999911 1 1 0.999911
0.999938 1 1 0.999938
0.999946 1 1 0.999946
0.999602 1 1 0.999602
1 1 1 1
1 1 1 1
1 1 1 1
0.999993 1 1 0.999993
0.999771 1 1 0.999771
0.999871 1 1 0.999871
0.999903 1 1 0.999903
0.999944 1 1 0.999944
0.99992 1 1 0.99992
0.99995 1 1 0.99995
0.999942 1 1 0.999942
0.999605 1 1 0.999605
1 1 1 1
0.999898 1 1 0.999898
0.999926 1 1 0.999926
0.999484 1 1 0.999484
0.999568 1 1 0.999568
0.999969 1 1 0.999969
0.999648 1 1 0.999648
0.999053 1 1 0.999053
1 1 1 1
0.999961 1 1 0.999961
0.999974 1 1 0.999974
1 1 1 1
0.999779 1 1 0.999779
0.999918 1 1 0.999918
0.99994 1 1 0.99994
0.999653 1 1 0.999653
1 1 1 1
0.999743 1 1 0.999743
0.999839 1 1 0.999839
0.999148 1 1 0.999148
1 1 1 1
1 1 1 1
0.99995 1 1 0.99995
1 1 1 1
0.999892 1 1 0.999892
0.999426 1 1 0.999426
1 1 1 1
0.999576 1 1 0.999576
0.999926 1 1 0.999926
0.999945 1 1 0.999945
0.999953 1 1 0.999953
0.99961 1 1 0.99961
0.999935 1 1 0.999935
0.999907 1 1 0.999907
0.999974 1 1 0.999974
0.999933 1 1 0.999933
0.999485 1 1 0.999485
0.999653 1 1 0.999653
0.999571 1 1 0.999571
0.999039 1 1 0.999039
1 1 1 1
0.999883 1 1 0.999883
0.999528 1 1 0.999528
0.999456 1 1 0.999456
0.999525 1 1 0.999525
0.998772 1 1 0.998772
0.998907 1 1 0.998907
0.999993 1 1 0.999993
0.999751 1 1 0.999751
0.999167 1 1 0.999167
0.998504 1 1 0.998504
1 1 1 1
1 1 1 1
1 1 1 1
0.999787 1 1 0.999787
1 1 1 1
1 1 1 1
0.999619 1 1 0.999619
1 1 1 1
0.999726 1 1 0.999726
0.999859 1 1 0.999859
0.999146 1 1 0.999146
1 1 1 1
0.999994 1 1 0.999994
0.99957 1 1 0.99957
0.999657 1 1 0.999657
0.998768 1 1 0.998768
0.999919 1 1 0.999919
0.999055 1 1 0.999055
0.999248 1 1 0.999248
0.998759 1 1 0.998759
1 1 1 1
1 1 1 1
1 1 1 1
1 1 1 1
1 1 1 1
0.999942 1 1 0.999942
0.999476 1 1 0.999476
0.999954 1 1 0.999954
0.999555 1 1 0.999555
1 1 1 1
0.999398 1 1 0.999398
0.999544 1 1 0.999544
0.998452 1 1 0.998452
0.999603 1 1 0.999603
0.998558 1 1 0.998558
0.999884 1 1 0.999884
0.999915 1 1 0.999915
0.999979 1 1 0.999979
0.999938 1 1 0.999938
0.999487 1 1 0.999487
0.999575 1 1 0.999575
0.999658 1 1 0.999658
0.999025 1 1 0.999025
1 1 1 1
0.999893 1 1 0.999893
0.999423 1 1 0.999423
0.999456 1 1 0.999456
0.999996 1 1 0.999996
0.999788 1 1 0.999788
0.999528 1 1 0.999528
0.99874 1 1 0.99874
0.999147 1 1 0.999147
0.998929 1 1 0.998929
0.998519 1.00001 1 0.998506
0.999417 1 1 0.999417
0.99943 1 1 0.99943
0.998565 1 1 0.998565
0.998672 1 1 0.998672
0.998796 1 1 0.998796
0.999452 1.00119 1 0.998265
1 1 1 1
0.998537 1.00011 1 0.998426
0.999904 1 1 0.999904
0.999235 1 1 0.999235
0.998585 1 1 0.998585
0.999901 1.00162 1 0.998288
0.99997 1 1 0.99997
0.999549 1 1 0.999549
1 1 1 1
1 1 1 1
0.999626 1 1 0.999626
1 1 1 1
0.999873 1 1 0.999873
0.99973 1 1 0.99973
0.999144 1 1 0.999144
1 1 1 1
0.999997 1 1 0.999997
0.999601 1 1 0.999601
0.999686 1 1 0.999686
0.99877 1 1 0.99877
0.999935 1 1 0.999935
0.999058 1 1 0.999058
0.999248 1 1 0.999248
0.998745 1 1 0.998745
0.99997 1 1 0.99997
1 1 1 1
0.999654 1 1 0.999654
0.998661 1 1 0.998661
0.998917 1 1 0.998917
0.999663 1.00135 1 0.99832
0.999378 1 1 0.999378
0.998648 1 1 0.998648
0.999053 1 1.00022 0.998837
0.998613 1 1 0.998613
1 1 1 1
1 1 1 1
1 1 1 1
0.999987 1 1 0.999987
1 1 1 1
1 1 1 1
1 1 1 1
0.999532 1 1 0.999532
0.999447 1 1 0.999447
1 1 1 1
1 1 1 1
0.999401 1 1 0.999401
0.999524 1 1 0.999524
0.998452 1 1 0.998452
0.999555 1 1 0.999555
0.998558 1 1 0.998558
0.999388 1 1 0.999388
0.998393 1 1 0.998393
0.998515 1 1 0.998515
1.00199 1.00395 1 0.998047
0.998598 1 1 0.998598
1.00105 1.0029 1 0.998151
1 1 1 1
0.999902 1 1 0.999902
0.999311 1 1 0.999311
0.999457 1 1 0.999457
1 1 1 1
0.999825 1 1 0.999825
0.999531 1 1 0.999531
0.998708 1 1 0.998708
0.998952 1 1 0.998952
0.999128 1 1 0.999128
0.998532 1.00002 1 0.998509
0.999414 1 1 0.999414
0.99943 1 1 0.99943
0.998499 1 1 0.998499
0.998696 1 1 0.998696
1 1 1 1
0.999892 1 1 0.999892
0.999264 1 1 0.999264
0.998796 1 1 0.998796
0.999477 1.00125 1 0.998229
0.99858 1 1 0.99858
0.998638 1.00019 1 0.998447
0.99995 1.00166 1 0.998291
0.999963 1 1 0.999963
0.999549 1 1 0.999549
0.998408 1 1 0.998408
0.998626 1 1 0.998626
1.00098 1.00285 1 0.998131
0.999695 1.00155 1 0.998144
0.998799 1.00044 1 0.998357
1.00388 1.00579 1 0.998104
0.999944 1 1 0.999944
1.00054 1.00231 1 0.998234
0.999335 1 1 0.999335
0.998738 1 1 0.998738
0.999576 1.00122 1 0.998362
1.00305 1.00482 1 0.998236
0.99945 1 1 0.99945
0.99967 1 1 0.99967
0.999134 1 1 0.999134
0.999585 1 1 0.999585
1 1 1 1
0.999999 1 1 0.999999
0.999681 1 1 0.999681
0.998773 1 1 0.998773
0.999949 1 1 0.999949
0.999248 1 1 0.999248
0.99906 1 1 0.99906
0.998731 1 1 0.998731
0.999978 1 1 0.999978
1 1 1 1
0.999656 1 1 0.999656
0.998662 1 1 0.998662
0.998921 1 1 0.998921
0.999334 1.00102 1 0.998319
0.999379 1 1 0.999379
0.998663 1.00001 1 0.998658
0.998901 1 1.00007 0.998834
0.998602 1 1 0.998602
1 1 1 1
0.999508 1 1 0.999508
0.999794 1 1 0.999794
0.999245 1 1 0.999245
1.00064 1.00242 1 0.998224
0.998847 1.00036 1 0.998492
1.0035 1.0054 1 0.998117
0.999117 1 1.00013 0.998984
0.999561 1.00107 1 0.998493
0.999786 1 1.0012 0.998584
0.998882 1.0004 1 0.998486
0.999943 1 1 0.999943
1 1 1 1
1 1 1 1
1 1 1 1
1 1 1 1
0.999996 1 1 0.999996
1 1 1 1
0.999982 1 1 0.999982
1 1 1 1
0.999557 1 1 0.999557
0.999496 1 1 0.999496
0.998558 1 1 0.998558
0.998452 1 1 0.998452
0.999403 1 1 0.999403
1 1 1 1
0.999387 1 1 0.999387
0.998393 1 1 0.998393
0.998515 1 1 0.998515
1.00184 1.0038 1 0.998046
0.998598 1 1 0.998598
1.00111 1.00296 1 0.998151
0.99838 1 1 0.99838
1.00217 1.00419 1 0.99799
1.00144 1.00334 1 0.998107
1.01021 1.01226 1 0.997977
1.0011 1.00292 1 0.998182
1.008 1.00997 1 0.998048
0.999411 1 1 0.999411
0.99943 1 1 0.99943
0.998433 1 1 0.998433
0.99872 1 1 0.99872
1 1 1 1
0.999879 1 1 0.999879
0.999292 1 1 0.999292
0.998797 1 1 0.998797
0.999498 1.00131 1 0.998192
0.99874 1.00027 1 0.998468
0.998575 1 1 0.998575
1.00004 1.00175 1 0.998295
0.999956 1 1 0.999956
0.999549 1 1 0.999549
0.998387 1 1 0.998387
0.998624 1 1 0.998624
1.00117 1.00305 1 0.99812
0.999875 1.0017 1 0.998182
0.999935 1 1 0.999935
0.999333 1 1 0.999333
0.998769 1 1 0.998769
0.998893 1.00054 1 0.998358
1.00422 1.00613 1 0.9981
0.999566 1.00124 1 0.998332
1.00085 1.00262 1 0.998235
1.00327 1.00504 1 0.998236
0.999452 1 1 0.999452
0.999133 1 1 0.999133
0.999668 1 1 0.999668
1.00159 1.00353 1 0.998068
1.00099 1.00284 1 0.998155
1.00914 1.01119 1 0.997974
1.00569 1.00767 1 0.998032
1.00213 1.00397 1 0.998171
1.00987 1.01175 1 0.998141
0.999397 1 1 0.999397
1.00526 1.00706 1 0.998213
0.998972 1 1 0.998972
0.998809 1.00038 1 0.998434
1.00131 1.00312 1 0.998194
1.00727 1.00897 1 0.998312
0.999765 1 1 0.999765
0.999116 1 1 0.999116
0.999193 1 1 0.999193
0.998988 1 1 0.998988
0.998662 1 1 0.998662
1 1 1 1
0.999987 1 1 0.999987
0.999657 1 1 0.999657
0.998926 1 1 0.998926
0.999055 1.00074 1 0.998318
0.99938 1 1 0.99938
0.998832 1 1 0.998832
0.998668 1 1 0.998668
0.998591 1 1 0.998591
1 1 1 1
0.999508 1 1 0.999508
0.999798 1 1 0.999798
0.999243 1 1 0.999243
1.00034 1.00212 1 0.998222
0.998759 1.00026 1 0.998494
1.00335 1.00524 1 0.998116
0.999095 1 1.00011 0.998987
0.999183 1.00068 1 0.998506
0.999773 1 1.0012 0.998574
0.998727 1.00017 1 0.998553
1 1 1 1
0.999876 1 1 0.999876
0.999124 1 1 0.999124
0.999383 1 1 0.999383
0.999078 1 1.00006 0.999016
1.00503 1.00698 1 0.998059
1.00154 1.00325 1 0.998294
1.00632 1.00827 1 0.998072
1.00025 1 1.00156 0.998693
0.999556 1.00114 1 0.998418
0.99934 1.00015 1.00086 0.998333
0.999931 1 1 0.999931
0.999658 1 1 0.999658
0.99995 1 1 0.99995
0.999945 1 1 0.999945
1 1 1 1
1 1 1 1
1 1 1 1
1 1 1 1
1 1 1 1
0.999999 1 1 0.999999
1 1 1 1
0.999994 1 1 0.999994
1 1 1 1
0.999978 1 1 0.999978
1 1 1 1
0.998598 1 1 0.998598
0.998515 1 1 0.998515
1.00116 1.00301 1 0.998151
1.00167 1.00363 1 0.998045
0.998393 1 1 0.998393
0.999386 1 1 0.999386
0.998379 1 1 0.998379
1.00215 1.00417 1 0.99799
1.00127 1.00317 1 0.998106
1.01039 1.01244 1 0.997978
1.00103 1.00285 1 0.998181
1.00745 1.00942 1 0.998048
1.00212 1.00416 1 0.997976
1.01176 1.01386 1 0.997935
1.00918 1.01118 1 0.998013
1.01587 1.01788 1 0.998027
1.00631 1.00826 1 0.998059
1.01219 1.01406 1 0.998154
0.998367 1 1 0.998367
0.998623 1 1 0.998623
1.00134 1.00324 1 0.998108
1.00005 1.00184 1 0.998219
0.999926 1 1 0.999926
0.999331 1 1 0.999331
0.9988 1 1 0.9988
0.998991 1.00063 1 0.998359
1.00456 1.00648 1 0.998096
1.00116 1.00293 1 0.998237
0.999521 1.00122 1 0.998302
1.0035 1.00527 1 0.998236
0.999454 1 1 0.999454
0.999132 1 1 0.999132
0.999666 1 1 0.999666
1.00176 1.00373 1 0.998037
1.00094 1.00279 1 0.998154
1.00909 1.01114 1 0.99797
1.00621 1.00819 1 0.998039
0.999397 1 1 0.999397
0.998967 1 1 0.998967
0.998891 1.00038 1.00003 0.998476
1.00242 1.00425 1 0.99818
1.00937 1.01123 1 0.998158
1.00145 1.00329 1 0.99817
1.00529 1.00709 1 0.998215
1.0067 1.00839 1 0.998326
0.999119 1 1 0.999119
0.998971 1 1 0.998971
0.999761 1 1 0.999761
0.999209 1 1 0.999209
1.01016 1.01226 1 0.99792
1.00867 1.01068 1 0.998009
1.01594 1.01801 1 0.997964
1.01151 1.01344 1 0.998097
1.00794 1.00976 1 0.998196
1.0121 1.01389 1 0.998234
0.999085 1 1 0.999085
1.00823 1.00989 1 0.998355
0.99871 1 1 0.99871
0.999871 1.00148 1.00018 0.998219
1.00527 1.00718 1 0.998109
1.00829 1.00997 1 0.99834
0.999819 1 1 0.999819
0.999308 1 1 0.999308
0.998977 1 1 0.998977
0.999058 1 1.00005 0.999008
0.998924 1 1 0.998924
1 1 1 1
0.999987 1.00177 1 0.998219
0.999803 1 1 0.999803
0.999508 1 1 0.999508
0.999241 1 1 0.999241
0.998662 1.00017 1 0.998496
1.0031 1.00499 1 0.998115
0.998989 1 1 0.998989
0.999794 1 1.00123 0.998564
0.998786 1.00027 1 0.99852
0.99862 1 1 0.99862
1 1 1 1
0.999881 1 1 0.999881
0.999124 1 1 0.999124
0.999383 1 1 0.999383
0.999029 1 1.00003 0.998999
1.00528 1.00724 1 0.998055
1.00094 1.00265 1 0.998295
1.0063 1.00825 1 0.998065
1.00023 1 1.00153 0.998697
0.999847 1.00142 1 0.998432
0.999578 1.00027 1.00096 0.998352
0.999913 1 1 0.999913
0.999506 1 1 0.999506
0.99928 1 1.00042 0.998863
0.999189 1 1.00006 0.999129
0.999215 1 1.00034 0.998877
1.00865 1.01061 1 0.998061
1.00276 1.00455 1 0.998225
1.00659 1.0084 1 0.998204
1.0022 1 1.00373 0.998469
0.999278 1.00107 1 0.998209
0.999934 1 1 0.999934
0.999598 1 1 0.999598
0.999641 1 1 0.999641
0.999472 1 1 0.999472
0.999665 1 1 0.999665
0.999953 1 1 0.999953
0.999952 1 1 0.999952
1 1 1 1
0.999947 1 1 0.999947
1 1 1 1
1 1 1 1
1 1 1 1
1 1 1 1
1 1 1 1
1 1 1 1
0.999999 1 1 0.999999
1 1 1 1
1 1 1 1
0.999991 1 1 0.999991
1 1 1 1
1.00098 1.00281 1 0.998179
1.0011 1.003 1 0.998106
1.00692 1.00889 1 0.998048
1.01057 1.01262 1 0.997979
1.00214 1.00416 1 0.997991
0.998379 1 1 0.998379
1.00215 1.00418 1 0.997976
1.01181 1.01391 1 0.997928
1.00897 1.01097 1 0.998013
1.01568 1.01767 1 0.998039
1.00646 1.00843 1 0.998056
1.01233 1.01419 1 0.998161
1.01116 1.01329 1 0.997903
1.01714 1.01921 1 0.997973
1.01377 1.01569 1 0.998106
1.01522 1.01716 1 0.998096
1.01093 1.01283 1 0.998125
1.01405 1.01582 1 0.998261
1.00195 1.00396 1 0.998005
1.00089 1.00275 1 0.998153
1.00906 1.01112 1 0.997965
1.00674 1.00871 1 0.998045
0.999398 1 1 0.999398
0.998961 1 1 0.998961
0.99906 1.00036 1.00018 0.998518
1.00272 1.00454 1 0.998189
1.00887 1.01071 1 0.998175
1.00526 1.00706 1 0.998216
1.00162 1.00348 1 0.998146
1.00614 1.00781 1 0.998339
0.999122 1 1 0.999122
0.998954 1 1 0.998954
0.999758 1 1 0.999758
0.999226 1 1 0.999226
1.01017 1.01227 1 0.99792
1.00867 1.01069 1 0.998004
1.01567 1.01773 1 0.997971
1.01094 1.01288 1 0.998091
0.999083 1 1 0.999083
0.998777 1 1.00003 0.998746
1.00004 1.00144 1.00039 0.998214
1.0076 1.00944 1 0.998183
1.01223 1.01399 1 0.998271
1.00515 1.00706 1 0.998099
1.00792 1.00958 1 0.998357
1.00883 1.01048 1 0.998373
0.998977 1 1 0.998977
0.998921 1 1 0.998921
0.999146 1 1.00014 0.999005
0.999791 1 1 0.999791
0.999323 1 1 0.999323
1.01704 1.01913 1 0.997946
1.01494 1.01698 1 0.997999
1.01295 1.01477 1 0.99821
1.01032 1.01202 1 0.998321
0.998931 1 1 0.998931
1.00992 1.01148 1 0.99846
0.998832 1 1.00029 0.998544
1.00149 1.003 1.00051 0.997993
1.0075 1.00946 1 0.998056
0.999811 1 1 0.999811
0.999455 1 1 0.999455
0.999172 1 1.00004 0.99913
0.998938 1 1 0.998938
0.999167 1 1.0003 0.998864
0.998873 1 1 0.998873
1 1 1 1
0.999887 1 1 0.999887
1.00557 1.00753 1 0.998051
0.999384 1 1 0.999384
0.999125 1 1 0.999125
0.998993 1 1.00001 0.998981
1.00044 1.00215 1 0.998295
1.00622 1.00818 1 0.998059
1.00025 1 1.00155 0.998701
0.999513 1.00037 1.00077 0.998372
1.00013 1.00169 1 0.998447
0.999917 1 1 0.999917
0.999507 1 1 0.999507
0.999224 1 1.00035 0.99887
0.999164 1 1.00004 0.999128
0.999328 1 1.00046 0.998864
1.00869 1.01066 1 0.998057
1.00285 1.00464 1 0.998218
1.00654 1.00833 1 0.998225
1.00164 1 1.00319 0.998452
0.999347 1.00111 1.00006 0.99818
0.999584 1 1 0.999584
0.999219 1 1 0.999219
1.00063 1 1.00193 0.998703
0.999532 1 1.00063 0.998898
0.999341 1 1.00058 0.998766
1.01205 1.01372 1 0.998354
1.00285 1.00472 1 0.998141
1.00592 1.00768 1 0.998251
1.00282 1.00019 1.00432 0.998317
0.998753 1.00078 1 0.997978
0.999938 1 1 0.999938
0.999613 1 1 0.999613
0.999385 1 1 0.999385
0.999623 1 1 0.999623
0.999665 1 1 0.999665
0.999446 1 1 0.999446
0.999316 1 1 0.999316
0.999433 1 1 0.999433
0.999669 1 1 0.999669
0.99995 1 1 0.99995
0.999953 1 1 0.999953
1 1 1 1
0.999953 1 1 0.999953
1 1 1 1
1 1 1 1
1 1 1 1
1 1 1 1
1 1 1 1
1 1 1 1
1 1 1 1
1 1 1 1
0.999998 1 1 0.999998
1 1 1 1
1 1 1 1
1.0066 1.00856 1 0.998052
1.00876 1.01077 1 0.998013
1.01246 1.01432 1 0.998168
1.0155 1.01748 1 0.998051
1.01184 1.01395 1 0.997921
1.00217 1.0042 1 0.997977
1.01125 1.01339 1 0.997896
1.01718 1.01925 1 0.997969
1.01398 1.01592 1 0.99809
1.01529 1.01722 1 0.9981
1.01034 1.01223 1 0.998126
1.01388 1.01562 1 0.998286
1.01655 1.01865 1 0.997938
1.01668 1.01866 1 0.998064
1.0158 1.01763 0.999999 0.998203
1.0134 1.01506 1 0.998359
1.01016 1.01227 1 0.997921
1.00866 1.01068 1 0.997999
1.01539 1.01745 1 0.997978
1.01037 1.01231 1 0.998084
0.99908 1 1 0.99908
0.998782 1 1 0.998782
1.00024 1.00145 1.00058 0.998209
1.00725 1.0091 1 0.998169
1.01235 1.01407 1 0.998308
1.00769 1.00935 1 0.998359
1.00497 1.00689 1 0.998089
1.00922 1.01084 1 0.998405
0.998977 1 1 0.998977
0.998919 1 1 0.998919
0.99923 1 1.00023 0.999001
0.999764 1 1 0.999764
0.999337 1 1 0.999337
1.01674 1.01883 1 0.997949
1.01483 1.01686 1 0.998006
1.01277 1.01459 1 0.998209
0.998926 1 1 0.998926
0.998835 1 1.00026 0.998578
1.00164 1.00289 1.00076 0.997985
1.01059 1.0123 1 0.998311
1.00722 1.00913 1 0.998104
1.00942 1.01098 1 0.998452
0.999816 1 1 0.999816
0.998935 1 1 0.998935
0.9989 1 1 0.9989
0.999253 1 1.0004 0.998855
0.999151 1 1.00001 0.999139
0.999433 1 1 0.999433
1.01621 1.01826 1 0.997989
1.01566 1.01783 0.999756 0.998112
1.01246 1.01419 1 0.998293
1.01309 1.01465 1 0.998457
0.998832 1 1 0.998832
1.00718 1.00896 1 0.998243
0.999859 1 1.00165 0.998217
1.00241 1.00352 1.00104 0.997863
0.999861 1 1 0.999861
0.999531 1 1 0.999531
0.999233 1 1 0.999233
0.999205 1 1.00029 0.998919
0.998865 1 1 0.998865
0.999 1 1.00022 0.998785
0.999921 1 1 0.999921
0.999509 1 1 0.999509
1.00881 1.01078 1 0.998053
0.999127 1 1 0.999127
0.999086 1 1.00021 0.998878
0.999531 1 1.00068 0.998851
1.00289 1.00469 1 0.998211
1.00657 1.00834 1 0.998245
1.00111 1 1.00268 0.998435
0.999506 1.00109 1.00027 0.99815
0.999585 1 1 0.999585
0.999229 1 1 0.999229
1.00064 1 1.00193 0.99872
0.999791 1 1.00089 0.998902
0.999105 1 1.00031 0.998795
1.01213 1.01378 1 0.99837
1.00276 1.00463 1 0.99814
1.00623 1.00792 1 0.998325
1.00291 1.00005 1.00457 0.998299
0.998789 1.00082 1.00003 0.997942
0.999333 1 1 0.999333
0.998978 1 1 0.998978
1.00235 1 1.00377 0.998581
0.999431 1 1.00075 0.998679
1.01804 1.02007 0.999514 0.998486
1.01126 1.01294 0.999872 0.998468
1.0032 1.00525 1 0.997967
1.00248 1.00026 1.00426 0.997977
0.999627 1 1 0.999627
0.999397 1 1 0.999397
0.999257 1 1 0.999257
0.999665 1 1 0.999665
0.99942 1 1 0.99942
0.999669 1 1 0.999669
0.999297 1 1 0.999297
0.999443 1 1 0.999443
0.999191 1 1 0.999191
0.99929 1 1 0.99929
0.999432 1 1 0.999432
0.999664 1 1 0.999664
0.999946 1 1 0.999946
0.999949 1 1 0.999949
1 1 1 1
0.999953 1 1 0.999953
1 1 1 1
1 1 1 1
1 1 1 1
1 1 1 1
1 1 1 1
1 1 1 1
1 1 1 1
1 1 1 1
1 1 1 1
1 1 1 1
1 1 1 1
1.00975 1.01165 1 0.998126
1.01417 1.01613 1 0.998074
1.0137 1.01541 1 0.998311
1.01535 1.01728 1 0.998104
1.01722 1.01929 1 0.997966
1.01136 1.0135 1 0.997888
1.01649 1.01858 1 0.997944
1.01607 1.01804 1 0.998061
1.01553 1.01735 1 0.998206
1.01449 1.01616 1 0.998355
1.01643 1.01844 1 0.998021
1.01933 1.02151 0.99965 0.998217
1.01864 1.02042 0.999914 0.998337
1.01645 1.01853 1 0.997952
1.01474 1.01676 1 0.998012
1.01256 1.01438 1 0.998208
0.998922 1 1 0.998922
0.99879 1 1.00018 0.998612
1.00164 1.00282 1.00085 0.997977
1.01077 1.01249 1 0.998301
1.00912 1.0107 1 0.998444
1.00727 1.00913 1 0.998153
0.998932 1 1 0.998932
0.998926 1 1 0.998926
0.999294 1 1.00045 0.998847
0.99982 1 1 0.99982
0.999148 1 1 0.999148
0.999412 1 1 0.999412
1.01672 1.01877 1 0.997992
1.01592 1.01797 0.999864 0.998116
1.01229 1.01404 0.999999 0.998282
0.998823 1 1 0.998823
0.999692 1.00001 1.0014 0.998282
1.00254 1.00377 1.0009 0.997877
1.01326 1.01482 0.999995 0.998471
1.00757 1.00935 1 0.998235
0.999887 1 1 0.999887
0.999531 1 1 0.999531
0.998871 1 1 0.998871
0.999017 1 1.00019 0.998822
0.999253 1 1.00033 0.998922
0.999216 1 1 0.999216
1.01932 1.02169 0.999544 0.998132
1.01398 1.01759 0.998212 0.998234
1.0143 1.01644 0.999421 0.99847
1.01125 1.01275 1 0.998512
0.999547 1 1.00088 0.998664
1.00262 1.00334 1.0014 0.997879
1.00089 1.00021 1.00264 0.998048
0.999945 1 1 0.999945
0.999681 1 1 0.999681
0.999546 1 1 0.999546
0.99927 1 1 0.99927
0.999022 1 1 0.999022
0.999065 1 1.00028 0.998789
0.998897 1 1 0.998897
1.00487 1 1.00597 0.998907
0.999587 1 1 0.999587
0.999239 1 1 0.999239
1.01208 1.01372 1 0.998386
0.999923 1 1.00102 0.998907
1.00084 1 1.00211 0.998738
0.99886 1 1.00004 0.998825
1.00268 1.00455 1 0.998139
1.00645 1.00807 1 0.9984
1.00308 1 1.00481 0.99828
0.998826 1.00092 1 0.997907
0.999321 1 1 0.999321
0.999073 1 1.00009 0.998987
1.00273 1 1.00414 0.998598
0.999307 1 1.00061 0.9987
1.01804 1.02007 0.999525 0.998487
1.01052 1.01215 0.999949 0.998448
1.00374 1.00575 1 0.998005
1.00206 1.00035 1.00377 0.997947
0.99917 1 1 0.99917
1.01754 1.02123 0.997927 0.998458
0.999619 1 1.00083 0.998795
1.00107 1 1.00268 0.998394
1.01637 1.01855 0.999285 0.998579
1.00616 1.00813 1 0.998049
1.00377 1.00273 1.00323 0.997812
0.999408 1 1 0.999408
0.999256 1 1 0.999256
0.999134 1 1 0.999134
0.999669 1 1 0.999669
0.999452 1 1 0.999452
0.999279 1 1 0.999279
0.999663 1 1 0.999663
0.999433 1 1 0.999433
0.999175 1 1 0.999175
0.999309 1 1 0.999309
0.999093 1 1 0.999093
0.999168 1 1 0.999168
0.999309 1 1 0.999309
0.999436 1 1 0.999436
0.999649 1 1 0.999649
0.999941 1 1 0.999941
0.999945 1 1 0.999945
1 1 1 1
0.999948 1 1 0.999948
1 1 1 1
1 1 1 1
1 1 1 1
1 1 1 1
1 1 1 1
0.999965 1 1 0.999965
1 1 1 1
1 1 1 1
1 1 1 1
1 1 1 1
1 1 1 1
1 1 1 1
1.01557 1.01725 1 0.998352
1.01526 1.01708 1 0.998209
1.01544 1.01742 1 0.998057
1.01641 1.0185 1 0.997949
1.01635 1.01835 1 0.998033
1.01936 1.02156 0.999647 0.998205
1.01903 1.02083 0.999888 0.998351
1.01997 1.02261 0.999238 0.998184
1.02237 1.02558 0.998534 0.998335
1.00916 1.01808 0.992712 0.99852
1.0172 1.01925 1 0.997996
1.01619 1.01815 0.999951 0.99812
1.01221 1.01397 0.999994 0.998271
0.998871 1 1.00006 0.998815
0.999611 1 1.00126 0.998347
1.00241 1.00375 1.00078 0.997891
1.01353 1.01508 0.999992 0.998486
1.00738 1.00917 1 0.998227
0.998878 1 1 0.998878
0.999035 1 1.00018 0.998859
0.999389 1 1.00046 0.998925
0.999913 1 1 0.999913
0.999531 1 1 0.999531
0.999199 1 1 0.999199
1.01905 1.02144 0.999514 0.998148
0.999941 1 1 0.999941
0.999665 1 1 0.999665
1.01406 1.0171 0.99877 0.998233
1.01534 1.01736 0.999574 0.998439
0.999552 1 1.00084 0.998713
1.00162 1.00031 1.0033 0.998013
1.00236 1.00364 1.00084 0.997886
1.01043 1.01195 1 0.998502
0.999591 1 1 0.999591
0.999268 1 1 0.999268
0.998853 1 1 0.998853
1.00243 1 1.00345 0.998983
0.999119 1 1.00035 0.998769
0.999029 1 1 0.999028