# vtk DataFile Version 2.0
Wound Healing Simulation
ASCII
DATASET UNSTRUCTURED_GRID
POINTS 3012 float
69.9759 18.75 4
67.2507 60.3285 4
69.976 18.75 2
73.0099 25.446 4
71.1327 20.9142 4
68.6801 16.6661 4
67.8269 19.9258 3.98546
67.2507 60.3286 2
71.1327 54.0858 4
68.6801 58.3339 4
65.6939 62.2254 4
65.3135 59.0027 3.98653
74.6784 42.3946 4
73.7221 47.2057 4
69.9759 18.75 0
73.0099 25.446 2
68.6801 16.6661 2
71.1327 20.9142 2
67.8274 19.9282 2
74.6792 32.6053 4
73.7222 27.7943 4
72.1454 23.1494 4
70.6152 26.2216 3.98498
68.887 21.9586 3.98532
67.2507 14.6715 4
66.6386 17.9707 3.98604
65.8003 21.024 3.97836
67.2507 60.3285 0
71.1327 54.0858 2
68.6801 58.3339 2
65.694 62.2255 2
65.3145 59.001 2
72.1454 51.8506 4
69.9759 56.25 4
68.8374 53.1128 3.98443
64.0165 64.0165 4
66.612 57.1348 3.98611
63.8871 60.7675 3.98821
63.5035 57.7753 3.98073
60.3285 67.2507 4
74.6792 42.3947 2
73.7222 47.2057 2
74.9194 39.9526 4
74.2788 44.8158 4
72.1687 42.0857 3.98306
73.0099 49.554 4
71.2501 46.5981 3.9841
73.0099 25.446 0
71.1327 20.9142 0
68.6801 16.6661 0
67.8269 19.9258 0.0145393
74.6792 32.6053 2
73.7222 27.7943 2
67.2508 14.6715 2
72.1455 23.1494 2
70.6152 26.2222 2
66.6394 17.9727 2
68.8872 21.9606 2
65.8001 21.0239 2
74.9197 35.0474 4
74.2794 30.1841 4
72.1854 32.9433 3.98345
71.2791 28.4317 3.98461
69.8167 24.0605 3.98511
68.3492 26.9513 3.97605
66.7652 22.933 3.97702
65.694 12.7746 4
65.3252 16.1017 3.98732
64.7174 19.192 3.97996
63.8908 22.0333 3.97434
71.1327 54.0858 0
65.6939 62.2254 0
68.6801 58.3339 0
65.3135 59.0027 0.013468
72.1455 51.8506 2
69.9759 56.25 2
68.8377 53.1106 2
64.0165 64.0165 2
66.6129 57.1324 2
63.888 60.7666 2
63.5037 57.7762 2
62.2254 65.694 4
58.8951 65.4151 3.99247
69.7698 50.9885 3.98427
67.7849 55.1676 3.98511
66.6515 52.2098 3.97595
62.3373 62.4288 3.99017
64.6642 56.0343 3.98013
62.2054 59.4088 3.98187
61.8271 56.6864 3.97728
58.3339 68.6801 4
60.3285 67.2508 2
73.7221 47.2057 0
74.6784 42.3946 0
74.9197 39.9526 2
74.2794 44.8159 2
72.1685 42.0856 2
73.0099 49.554 2
71.2502 46.5977 2
75 37.5 4
72.4058 39.8023 3.98284
71.7833 44.3531 3.98369
69.8054 41.7901 3.97402
70.576 48.8133 3.98416
68.9144 46.0156 3.97515
74.6792 32.6053 0
73.7222 27.7943 0
67.2507 14.6715 0
72.1454 23.1494 0
70.6152 26.2216 0.0150197
68.887 21.9586 0.0146797
66.6386 17.9707 0.0139637
65.8003 21.024 0.0216369
74.9197 35.0474 2
74.2794 30.1841 2
72.1851 32.9434 2
71.2792 28.4318 2
65.694 12.7745 2
65.3261 16.1028 2
69.8168 24.0617 2
68.3491 26.9516 2
64.7175 19.1913 2
66.7649 22.9331 2
63.8906 22.0329 2
72.4136 35.2242 3.98286
71.8046 30.6764 3.98387
69.8414 33.2681 3.97462
68.9685 29.0379 3.97585
67.6136 24.9121 3.97618
66.1973 27.6337 3.9727
64.0165 10.9835 4
64.7594 23.8291 3.97325
63.8914 14.3253 3.98874
63.5168 17.4424 3.98197
62.9115 20.3166 3.97568
62.096 22.941 3.97205
60.6848 11.0962 3.99091
57.6132 11.4429 3.98526
72.1454 51.8506 0
69.9759 56.25 0
68.8374 53.1128 0.0155655
64.0165 64.0165 0
63.8871 60.7675 0.0117876
66.612 57.1348 0.0138924
63.5035 57.7753 0.0192709
62.2255 65.694 2
58.8956 65.4151 2
69.77 50.987 2
67.7855 55.1651 2
66.6513 52.2095 2
62.3381 62.4283 2
64.6643 56.0349 2
62.2055 59.4098 2
61.8273 56.6874 2
60.6697 63.9781 3.99149
57.0258 66.7359 3.99309
57.5591 63.6953 3.98676
67.5093 50.1772 3.9751
65.7047 54.1746 3.97763
64.5395 51.3868 3.97176
60.7749 60.9423 3.98341
62.8245 55.0721 3.97687
60.6616 58.1655 3.97792
60.332 55.7914 3.97635
56.25 69.9759 4
58.3339 68.6801 2
60.3285 67.2507 0
58.922 9.65459 3.99173
62.2254 9.30607 4
73.0099 49.554 0
74.2788 44.8158 0
71.2501 46.5981 0.0158995
72.1687 42.0857 0.0169351
74.9194 39.9526 0
75 37.5 2
72.4057 39.8024 2
71.7832 44.3527 2
69.8052 41.79 2
70.5761 48.8125 2
68.9144 46.0153 2
72.4891 37.5121 3.98266
70.0421 39.6576 3.97342
69.4322 43.9082 3.97474
67.5987 41.4984 3.97054
68.2678 48.1078 3.97495
66.7124 45.4416 3.97171
74.9197 35.0474 0
74.2794 30.1841 0
72.1854 32.9433 0.0165483
71.2791 28.4317 0.0153855
65.694 12.7746 0
65.3252 16.1017 0.0126809
69.8167 24.0605 0.0148867
68.3492 26.9513 0.0239483
66.7652 22.933 0.0229762
64.7174 19.192 0.0200389
63.8908 22.0333 0.0256562
72.4135 35.2241 2
71.8046 30.6765 2
69.8413 33.2683 2
68.9686 29.038 2
64.0165 10.9835 2
63.8921 14.326 2
63.517 17.4414 2
67.6133 24.9123 2
66.1972 27.6337 2
62.9116 20.3158 2
64.7592 23.8289 2
62.096 22.9407 2
60.6854 11.0967 2
57.6134 11.4421 2
70.0587 35.3919 3.97364
69.4688 31.1493 3.97489
67.6571 33.5904 3.97123
66.775 29.6217 3.97205
65.5264 25.6986 3.97271
64.1491 28.2541 3.97186
62.3426 12.6534 3.98986
62.859 24.6361 3.97142
62.2016 15.7797 3.9832
61.8183 18.679 3.97792
61.2217 21.3379 3.97302
60.4275 23.7254 3.97162
59.2474 12.7744 3.98369
55.875 10.2296 3.98676
56.4062 13.1072 3.98199
69.7698 50.9885 0.0157331
62.2254 65.694 0
58.8951 65.4151 0.00752866
67.7849 55.1676 0.0148927
66.6515 52.2098 0.0240502
62.3373 62.4288 0.00983261
62.2054 59.4088 0.0181256
64.6642 56.0343 0.0198675
61.8271 56.6864 0.0227207
60.6703 63.9778 2
57.0262 66.736 2
57.5591 63.6963 2
67.5091 50.1768 2
65.7046 54.1747 2
64.5393 51.3868 2
60.7751 60.9434 2
62.8246 55.0729 2
60.6619 58.1666 2
60.3323 55.7922 2
55.0713 67.9329 3.99334
59.2206 62.3701 3.9845
55.8058 64.9131 3.98875
56.3282 62.0956 3.98307
65.3334 49.4096 3.97119
63.7087 53.2946 3.97329
62.4423 50.6541 3.96973
59.3356 59.5632 3.98064
61.0809 54.3138 3.97574
59.2923 57.0185 3.97493
59.2458 55.188 3.97757
48.1037 68.5807 3.98982
50.9489 69.9325 3.99367
54.0858 71.1327 4
56.25 69.976 2
58.3339 68.6801 0
57.0592 8.33469 3.99203
60.3285 7.74928 4
58.9225 9.65482 2
62.2255 9.30602 2
70.576 48.8133 0.0158429
71.7833 44.3531 0.0163146
68.9144 46.0156 0.0248481
69.8054 41.7901 0.0259818
72.4058 39.8023 0.0171607
75 37.5 0
72.489 37.5121 2
70.042 39.6575 2
69.4322 43.908 2
67.5985 41.4984 2
68.2678 48.1074 2
66.7124 45.4416 2
70.1301 37.5216 3.97353
67.8353 39.5128 3.97004
67.2258 43.4712 3.97105
65.5573 41.2108 3.97012
66.0708 47.4195 3.97155
64.655 44.8504 3.97058
72.4136 35.2242 0.0171367
71.8046 30.6764 0.0161263
69.8414 33.2681 0.02538
68.9685 29.0379 0.0241515
64.0165 10.9835 0
63.8914 14.3253 0.0112594
63.5168 17.4424 0.0180263
67.6136 24.9121 0.0238172
66.1973 27.6337 0.0273016
64.7594 23.8291 0.0267545
62.9115 20.3166 0.0243215
62.096 22.941 0.0279492
60.6848 11.0962 0.00908903
57.6132 11.4429 0.0147402
70.0587 35.392 2
69.4689 31.1494 2
67.657 33.5903 2
66.7751 29.6217 2
62.3432 12.654 2
62.2017 15.779 2
61.8186 18.6779 2
65.5262 25.6986 2
64.149 28.254 2
61.2219 21.3372 2
62.8589 24.636 2
60.4275 23.7252 2
59.2474 12.7738 2
56.4061 13.1062 2
55.8752 10.2288 2
67.8713 35.5473 3.97023
67.2671 31.6218 3.97115
65.6994 33.9267 3.97049
64.6656 30.1907 3.97064
63.5401 26.4132 3.97168
62.26 28.7761 3.97201
60.7769 14.2189 3.9834
61.0458 25.3362 3.97102
60.6162 17.1214 3.98033
60.2267 19.8109 3.97508
59.6637 22.2553 3.97126
58.9783 24.3181 3.97273
54.0381 9.13279 3.98752
57.9116 14.3259 3.98174
54.7874 12.0064 3.98339
55.3134 14.6391 3.98051
67.5093 50.1772 0.0249021
57.0258 66.7359 0.00691414
60.6697 63.9781 0.00851392
57.5591 63.6953 0.0132415
65.7047 54.1746 0.0223667
64.5395 51.3868 0.028242
60.7749 60.9423 0.0165873
60.6616 58.1655 0.0220808
62.8245 55.0721 0.0231286
60.332 55.7914 0.0236489
55.0716 67.933 2
59.2207 62.3712 2
55.8057 64.9139 2
56.3282 62.0968 2
65.3332 49.4096 2
63.7087 53.2951 2
62.4421 50.6542 2
59.3359 59.5645 2
61.0812 54.3145 2
59.2928 57.0193 2
59.2464 55.1885 2
53.0431 69.0008 3.99356
53.9681 66.0153 3.98939
57.8822 60.8757 3.98188
54.685 63.2127 3.98503
55.2126 60.6229 3.98128
63.195 48.6631 3.9697
61.7426 52.5778 3.971
60.272 50.0219 3.96872
58.0205 58.2674 3.97728
59.33 53.9513 3.97521
58.1291 55.8164 3.97304
50.1104 67.8587 3.98978
47.4642 66.5847 3.98744
46.0573 69.1602 3.98989
48.1037 68.5812 2
48.803 70.7238 3.99375
50.9491 69.9327 2
51.8506 72.1454 4
54.0858 71.1327 2
56.25 69.9759 0
55.1035 7.13921 3.99232
58.3339 6.31992 4
57.0596 8.33468 2
60.3286 7.74926 2
58.922 9.65459 0.00826988
62.2254 9.30607 0
68.2678 48.1078 0.0250511
69.4322 43.9082 0.0252574
66.7124 45.4416 0.0282858
67.5987 41.4984 0.0294624
70.0421 39.6576 0.0265793
72.4891 37.5121 0.0173391
70.13 37.5216 2
67.8352 39.5128 2
67.2257 43.4712 2
65.5571 41.2108 2
66.0706 47.4194 2
64.6549 44.8504 2
67.9316 37.5221 3.97007
65.7882 39.3709 3.9698
65.1781 43.0268 3.97022
63.7528 40.9308 3.9711
63.9674 46.7188 3.97032
62.8101 44.2187 3.97174
70.0587 35.3919 0.0263639
69.4688 31.1493 0.0251115
67.6571 33.5904 0.028769
66.775 29.6217 0.0279515
62.3426 12.6534 0.0101431
62.2016 15.7797 0.0168047
61.8183 18.679 0.0220833
65.5264 25.6986 0.0272945
64.1491 28.2541 0.0281372
62.859 24.6361 0.0285763
61.2217 21.3379 0.0269808
60.4275 23.7254 0.0283802
59.2474 12.7744 0.0163142
56.4062 13.1072 0.018006
55.875 10.2296 0.0132368
67.8713 35.5473 2
67.2672 31.6217 2
65.6993 33.9266 2
64.6656 30.1906 2
60.777 14.2183 2
60.6163 17.1203 2
60.2271 19.8099 2
63.5399 26.4131 2
62.26 28.776 2
59.664 22.2547 2
61.0457 25.3361 2
58.9784 24.3181 2
57.9114 14.3252 2
55.3132 14.6382 2
54.0381 9.1321 2
54.7874 12.0053 2
65.877 35.6666 3.96976
65.1876 32.1534 3.96997
64.2838 34.2493 3.97071
62.5975 30.6345 3.97113
61.6527 27.0706 3.97145
60.8524 29.1387 3.97308
59.3127 15.6628 3.98147
59.3296 25.7943 3.97211
59.1269 18.3491 3.97847
58.7426 20.8496 3.97203
58.2853 23.0899 3.97072
57.9666 24.6626 3.97447
52.1128 8.15111 3.98812
53.0584 11.0125 3.98427
56.6778 15.7357 3.98082
53.81 13.674 3.9818
54.3771 15.9913 3.98038
55.0713 67.9329 0.00666172
65.3334 49.4096 0.0288116
55.8058 64.9131 0.0112458
59.2206 62.3701 0.0155037
56.3282 62.0956 0.0169267
63.7087 53.2946 0.0267102
62.4423 50.6541 0.0302676
59.3356 59.5632 0.0193623
59.2923 57.0185 0.0250666
61.0809 54.3138 0.0242646
59.2458 55.188 0.022434
53.0434 69.0009 2
53.9679 66.016 2
57.8823 60.8769 2
54.6849 63.2138 2
55.2127 60.6243 2
63.1948 48.6631 2
61.7429 52.5782 2
60.2717 50.0219 2
58.021 58.2689 2
59.3305 53.9516 2
58.1297 55.8165 2
52.0716 67.0018 3.98967
52.9543 64.2231 3.98654
56.6499 59.4953 3.98002
[...]
POINT_DATA 3012
SCALARS rho_c_phif_kappa float 4
LOOKUP_TABLE default
1000 0 1.00085 0.250655
1000 0 1.00075 0.250893
1000 0 1.00085 0.250437
1000 0 1.00085 0.250711
1000 0 1.00085 0.250619
1000 0 1.00085 0.250681
1005.87 6.70981e-09 1.00092 0.250367
1000 0 1.00075 0.250893
1000 0 1.00076 0.250678
1000 0 1.00075 0.250723
1000 0 1.00085 0.250361
1005.87 6.61594e-09 1.00098 0.250215
1000 0 1.00085 0.250771
1000 0 1.00085 0.250785
1000 0 1.00085 0.250224
1000 0 1.00085 0.250648
1000 0 1.00085 0.250423
1000 0 1.00085 0.250459
1005.88 6.71889e-09 1.00092 0.250489
1000 0 1.00076 0.250946
1000 0 1.00085 0.250808
1000 0 1.00085 0.250634
1005.83 6.75496e-09 1.00092 0.250503
1005.86 6.72971e-09 1.00092 0.250418
1000 0 1.00085 0.25063
1005.89 6.68873e-09 1.00092 0.250281
1005.58 6.51071e-09 1.00098 0.250262
1000 0 1.00075 0.25089
1000 0 1.0008 0.250572
1000 0 1.0008 0.250564
1000 0 1.00075 0.25092
1005.86 6.62451e-09 1.00098 0.25023
1000 0 1.00085 0.250441
1000 0 1.00085 0.250324
1005.86 6.73584e-09 1.00093 0.250457
1000 0 1.00075 0.250827
1005.86 6.65455e-09 1.00093 0.250457
1005.89 6.59341e-09 1.00098 0.250332
1005.59 6.54166e-09 1.00098 0.250332
1000 0 1.00075 0.251031
1000 0 1.00076 0.250958
1000 0 1.0008 0.250839
1000 0 1.00076 0.25098
1000 0 1.00085 0.250873
1005.8 6.76065e-09 1.00097 0.250623
1000 0 1.00076 0.250856
1005.84 6.77555e-09 1.00093 0.250571
1000 0 1.00085 0.250604
1000 0 1.00085 0.250297
1000 0 1.00085 0.250181
1005.87 6.70981e-09 1.00092 0.250605
1000 0 1.0008 0.251012
1000 0 1.00085 0.250777
1000 0 1.00085 0.250387
1000 0 1.00085 0.250526
1005.81 6.76241e-09 1.00092 0.250526
1005.89 6.69752e-09 1.00092 0.250422
1005.86 6.73811e-09 1.00092 0.25051
1005.57 6.50813e-09 1.00098 0.250203
1000 0 1.00076 0.250984
1000 0 1.00085 0.250876
1005.79 6.75106e-09 1.00092 0.250658
1005.82 6.75949e-09 1.00092 0.250568
1005.85 6.74557e-09 1.00092 0.250448
1005.55 6.47202e-09 1.00098 0.250043
1005.57 6.49616e-09 1.00098 0.250166
1000 0 1.00085 0.250541
1005.91 6.66829e-09 1.00092 0.250226
1005.58 6.5255e-09 1.00099 0.250265
1005.48 6.38291e-09 1.00097 0.249481
1000 0 1.00076 0.250778
1000 0 1.00075 0.250897
1000 0 1.00075 0.250867
1005.87 6.61594e-09 1.00098 0.250247
1000 0 1.00076 0.250748
1000 0 1.00076 0.250791
1005.86 6.74452e-09 1.00097 0.250387
1000 0 1.0008 0.250583
1005.86 6.66358e-09 1.00098 0.250296
1005.88 6.60034e-09 1.00095 0.25039
1005.59 6.53889e-09 1.00098 0.250351
1000 0 1.00075 0.250993
1006 6.59663e-09 1.00098 0.250404
1005.86 6.76119e-09 1.00097 0.250519
1005.86 6.69853e-09 1.00097 0.250485
1005.56 6.49021e-09 1.00098 0.250066
1005.92 6.58242e-09 1.00093 0.25048
1005.59 6.53006e-09 1.00098 0.250282
1005.59 6.54883e-09 1.00098 0.250362
1005.5 6.40622e-09 1.00098 0.250008
1000 0 1.00075 0.251061
1000 0 1.00075 0.251024
1000 0 1.00076 0.250854
1000 0 1.00076 0.25096
1000 0 1.00076 0.250977
1000 0 1.0008 0.250905
1005.77 6.76966e-09 1.00095 0.250582
1000 0 1.0008 0.250735
1005.8 6.78346e-09 1.00095 0.250557
1000 0 1.00076 0.250997
1005.79 6.74885e-09 1.00097 0.250562
1005.82 6.77008e-09 1.00093 0.250584
1005.55 6.46302e-09 1.00097 0.249858
1005.85 6.77396e-09 1.00093 0.25047
1005.55 6.46608e-09 1.00097 0.250036
1000 0 1.00085 0.250767
1000 0 1.00085 0.250778
1000 0 1.00085 0.250146
1000 0 1.00085 0.250424
1005.83 6.75496e-09 1.00092 0.25054
1005.86 6.72971e-09 1.00092 0.250599
1005.89 6.68873e-09 1.00092 0.250557
1005.58 6.51071e-09 1.00098 0.250147
1000 0 1.00076 0.250963
1000 0 1.00085 0.250861
1005.76 6.76025e-09 1.00094 0.250576
1005.78 6.76721e-09 1.00092 0.250583
1000 0 1.0008 0.250588
1005.9 6.67555e-09 1.00093 0.250385
1005.83 6.75328e-09 1.00092 0.250504
1005.56 6.46984e-09 1.00098 0.250002
1005.58 6.52294e-09 1.00099 0.250214
1005.57 6.49359e-09 1.00098 0.250145
1005.48 6.38357e-09 1.00097 0.249475
1005.78 6.74529e-09 1.00097 0.250632
1005.81 6.75795e-09 1.00092 0.250594
1005.55 6.46593e-09 1.00098 0.249917
1005.55 6.46658e-09 1.00098 0.249991
1005.56 6.48262e-09 1.00098 0.250065
1005.46 6.34908e-09 1.00097 0.249321
1000 0 1.00075 0.250906
1005.47 6.37032e-09 1.00097 0.249373
1005.93 6.64842e-09 1.00098 0.250193
1005.59 6.53689e-09 1.00098 0.250301
1005.49 6.39621e-09 1.00097 0.249599
1005.49 6.39508e-09 1.00097 0.248851
1005.99 6.63082e-09 1.00098 0.250436
1005.55 6.53936e-09 1.00098 0.250901
1000 0 1.00076 0.25076
1000 0 1.00076 0.250831
1005.86 6.73584e-09 1.00097 0.250399
1000 0 1.00075 0.250934
1005.89 6.59341e-09 1.00098 0.250248
1005.86 6.65455e-09 1.00098 0.250305
1005.59 6.54166e-09 1.00098 0.250368
1000 0 1.00075 0.250988
1006 6.60027e-09 1.00098 0.250407
1005.84 6.76904e-09 1.00095 0.250515
1005.87 6.70757e-09 1.00095 0.250477
1005.56 6.48771e-09 1.00098 0.250083
1005.91 6.58764e-09 1.00098 0.250292
1005.59 6.52725e-09 1.00098 0.250315
1005.59 6.54656e-09 1.00098 0.250376
1005.5 6.40653e-09 1.00097 0.249987
1005.96 6.58602e-09 1.00098 0.250362
1006.05 6.6083e-09 1.00098 0.250381
1005.56 6.54459e-09 1.00098 0.25081
1005.55 6.47465e-09 1.00097 0.250061
1005.58 6.51253e-09 1.00098 0.250139
1005.47 6.36563e-09 1.00097 0.249319
1005.58 6.5495e-09 1.00098 0.250582
1005.49 6.39751e-09 1.00097 0.249767
1005.51 6.41453e-09 1.00098 0.250028
1005.52 6.41819e-09 1.00098 0.249435
1000 0 1.00075 0.251084
1000 0 1.00075 0.251052
1000 0 1.00075 0.251017
1006.03 6.63419e-09 1.00098 0.250435
1000 0 1.00075 0.250959
1000 0 1.00076 0.250799
1000 0 1.00076 0.250907
1005.84 6.77555e-09 1.00097 0.250564
1005.8 6.76065e-09 1.00097 0.250615
1000 0 1.00076 0.250993
1000 0 1.00076 0.25099
1005.76 6.75838e-09 1.00097 0.250586
1005.79 6.77845e-09 1.00095 0.250578
1005.56 6.4606e-09 1.00097 0.249862
1005.82 6.78146e-09 1.00097 0.250486
1005.56 6.46374e-09 1.00097 0.250028
1005.78 6.74175e-09 1.00097 0.250598
1005.55 6.46021e-09 1.00097 0.249777
1005.55 6.46563e-09 1.00097 0.249962
1005.45 6.33622e-09 1.00097 0.249263
1005.55 6.46768e-09 1.00097 0.250062
1005.45 6.34461e-09 1.00097 0.249351
1000 0 1.00076 0.250968
1000 0 1.00085 0.250873
1005.79 6.75106e-09 1.00096 0.250648
1005.82 6.75949e-09 1.00092 0.250586
1000 0 1.00075 0.250749
1005.91 6.66829e-09 1.00093 0.250546
1005.85 6.74557e-09 1.00092 0.250555
1005.55 6.47202e-09 1.00098 0.24996
1005.57 6.49616e-09 1.00098 0.250131
1005.58 6.5255e-09 1.00099 0.250159
1005.48 6.38291e-09 1.00097 0.249467
1005.75 6.75492e-09 1.00097 0.250608
1005.78 6.76622e-09 1.00092 0.250616
1005.56 6.46359e-09 1.00098 0.249905
1005.56 6.46439e-09 1.00098 0.25
1000 0 1.00075 0.250917
1005.92 6.65451e-09 1.00095 0.250328
1005.58 6.53429e-09 1.00098 0.250301
1005.56 6.48025e-09 1.00098 0.250039
1005.45 6.34935e-09 1.00097 0.24927
1005.49 6.39689e-09 1.00097 0.249581
1005.47 6.37081e-09 1.00097 0.249388
1005.49 6.39534e-09 1.00097 0.248857
1005.98 6.63568e-09 1.00098 0.250389
1005.55 6.53759e-09 1.00098 0.250859
1005.55 6.46172e-09 1.00097 0.249812
1005.55 6.46593e-09 1.00098 0.249989
1005.45 6.33895e-09 1.00097 0.249347
1005.45 6.3442e-09 1.00097 0.24926
1005.46 6.3586e-09 1.00097 0.249296
1005.47 6.36342e-09 1.00097 0.248767
1005.96 6.63455e-09 1.00098 0.250332
1005.48 6.38283e-09 1.00097 0.248747
1005.58 6.54163e-09 1.00098 0.250523
1005.5 6.40823e-09 1.00098 0.249862
1005.51 6.40826e-09 1.00097 0.248992
1005.49 6.38876e-09 1.00097 0.248221
1005.56 6.5403e-09 1.00098 0.250786
1005.54 6.53647e-09 1.00098 0.251009
1005.51 6.41543e-09 1.00098 0.250628
1005.86 6.76119e-09 1.00097 0.250464
1000 0 1.00075 0.250982
1006 6.59663e-09 1.00098 0.250399
1005.86 6.69853e-09 1.00097 0.250347
1005.56 6.49021e-09 1.00098 0.250101
1005.92 6.58242e-09 1.00098 0.25035
1005.59 6.54883e-09 1.00098 0.250394
1005.59 6.53006e-09 1.00098 0.250343
1005.5 6.40622e-09 1.00097 0.249968
1005.95 6.59037e-09 1.00098 0.250393
1006.04 6.6115e-09 1.00098 0.250356
1005.56 6.54275e-09 1.00098 0.250848
1005.56 6.47229e-09 1.00097 0.250058
1005.58 6.50987e-09 1.00098 0.250174
1005.47 6.36637e-09 1.00097 0.249318
1005.58 6.54739e-09 1.00098 0.250586
1005.5 6.39789e-09 1.00097 0.249786
1005.51 6.41497e-09 1.00098 0.25003
1005.52 6.41818e-09 1.00098 0.249378
1006.09 6.62151e-09 1.00098 0.250329
1005.57 6.54629e-09 1.00098 0.250759
1005.55 6.54211e-09 1.00098 0.250894
1005.51 6.41888e-09 1.00098 0.250658
1005.46 6.34968e-09 1.00097 0.249323
1005.48 6.37925e-09 1.00097 0.249457
1005.48 6.39478e-09 1.00097 0.248677
1005.51 6.41888e-09 1.00098 0.250299
1005.51 6.41362e-09 1.00097 0.249061
1005.52 6.42311e-09 1.00098 0.249332
1005.51 6.42175e-09 1.00097 0.248851
1005.5 6.53192e-09 1.00098 0.250786
1006.16 6.64832e-09 1.00098 0.250258
1000 0 1.00075 0.251109
1000 0 1.00075 0.251079
1000 0 1.00075 0.251047
1006.07 6.64606e-09 1.00098 0.250367
1000 0 1.00075 0.251002
1006.02 6.63823e-09 1.00098 0.250429
1000 0 1.00075 0.250962
1005.85 6.77396e-09 1.00097 0.250521
1005.82 6.77008e-09 1.00097 0.2506
1005.55 6.46608e-09 1.00097 0.250022
1005.55 6.46302e-09 1.00097 0.249867
1005.79 6.74885e-09 1.00097 0.250607
1000 0 1.00076 0.250998
1005.73 6.75204e-09 1.00097 0.250598
1005.55 6.45775e-09 1.00097 0.24978
1005.56 6.46321e-09 1.00097 0.249963
1005.45 6.33656e-09 1.00097 0.249258
1005.56 6.46543e-09 1.00097 0.250053
1005.45 6.34481e-09 1.00097 0.24935
1005.55 6.46066e-09 1.00097 0.249769
1005.44 6.32925e-09 1.00097 0.249196
1005.45 6.34118e-09 1.00097 0.249325
1005.46 6.36109e-09 1.00097 0.248811
1005.46 6.34923e-09 1.00097 0.24935
1005.46 6.3631e-09 1.00097 0.248803
1005.78 6.74529e-09 1.00097 0.250577
1005.81 6.75795e-09 1.00092 0.250625
1005.55 6.46593e-09 1.00097 0.249892
1005.55 6.46658e-09 1.00098 0.250006
1000 0 1.00075 0.250936
1005.93 6.64842e-09 1.00093 0.250394
1005.59 6.53689e-09 1.00099 0.250296
1005.56 6.48262e-09 1.00098 0.250014
1005.46 6.34908e-09 1.00097 0.249218
1005.47 6.37032e-09 1.00097 0.2494
1005.49 6.39621e-09 1.00097 0.249562
1005.49 6.39508e-09 1.00097 0.248863
1005.99 6.63082e-09 1.00098 0.250355
1005.55 6.53936e-09 1.00098 0.250825
1005.56 6.45924e-09 1.00097 0.249808
1005.56 6.46383e-09 1.00098 0.24998
1005.45 6.33932e-09 1.00097 0.249322
1005.45 6.34443e-09 1.00097 0.249291
1005.95 6.63994e-09 1.00098 0.250289
1005.58 6.53927e-09 1.00098 0.250503
1005.5 6.4085e-09 1.00098 0.249901
1005.46 6.35902e-09 1.00097 0.249304
1005.47 6.36351e-09 1.00097 0.24872
1005.51 6.40867e-09 1.00097 0.248947
1005.48 6.38304e-09 1.00097 0.248747
1005.49 6.38913e-09 1.00097 0.2482
1005.56 6.5385e-09 1.00098 0.250785
1005.51 6.41572e-09 1.00098 0.250648
1005.54 6.53473e-09 1.00098 0.250954
1005.44 6.33497e-09 1.00097 0.249271
1005.45 6.33919e-09 1.00097 0.249339
1005.46 6.35316e-09 1.00097 0.24893
1005.46 6.354e-09 1.00097 0.248766
1005.47 6.37107e-09 1.00097 0.24864
1005.46 6.3515e-09 1.00097 0.248331
1005.57 6.54159e-09 1.00098 0.250671
1005.48 6.3758e-09 1.00097 0.248149
1005.51 6.41412e-09 1.00098 0.250318
1005.52 6.41961e-09 1.00097 0.249193
1005.5 6.40707e-09 1.00097 0.248237
1005.48 6.37846e-09 1.00097 0.247582
1005.53 6.53242e-09 1.00098 0.251053
1005.51 6.41458e-09 1.00098 0.25066
1005.51 6.41595e-09 1.00098 0.250752
1005.53 6.43428e-09 1.00098 0.250283
1005.55 6.47465e-09 1.00097 0.250058
1006.05 6.6083e-09 1.00098 0.250323
1005.96 6.58602e-09 1.00098 0.250437
1005.56 6.54459e-09 1.00098 0.250896
1005.58 6.51253e-09 1.00098 0.250204
1005.47 6.36563e-09 1.00097 0.249314
1005.58 6.5495e-09 1.00098 0.250586
1005.51 6.41453e-09 1.00098 0.250028
1005.49 6.39751e-09 1.00097 0.249808
1005.52 6.41819e-09 1.00097 0.24932
1006.08 6.62456e-09 1.00098 0.250304
1005.57 6.54435e-09 1.00098 0.250773
1005.55 6.54044e-09 1.00098 0.250934
1005.51 6.41883e-09 1.00098 0.250651
1005.46 6.34994e-09 1.00097 0.249317
1005.48 6.37994e-09 1.00097 0.249461
1005.48 6.39504e-09 1.00097 0.248672
1005.51 6.41906e-09 1.00098 0.2503
1005.51 6.41381e-09 1.00097 0.249097
1005.52 6.42362e-09 1.00098 0.249316
1005.51 6.42186e-09 1.00097 0.2489
1006.13 6.63365e-09 1.00098 0.250291
1005.54 6.53872e-09 1.00098 0.250941
1005.51 6.41833e-09 1.00098 0.25057
1005.51 6.41896e-09 1.00098 0.250827
1005.53 6.43615e-09 1.00098 0.250185
1005.47 6.42364e-09 1.00097 0.248751
1005.5 6.41089e-09 1.00097 0.248708
1005.47 6.34594e-09 1.00097 0.248016
1005.53 6.4274e-09 1.00098 0.249586
1005.51 6.41668e-09 1.00097 0.248293
1005.52 6.45529e-09 1.00097 0.248656
1005.51 6.53425e-09 1.00098 0.250841
1005.52 6.41639e-09 1.00098 0.251211
1005.49 6.52854e-09 1.00098 0.250748
1005.5 6.53073e-09 1.00098 0.250793
1006.2 6.66289e-09 1.00094 0.250458
1006.16 6.65116e-09 1.00096 0.250397
1000 0 1.00085 0.250685
1000 0 1.00075 0.251104
1000 0 1.00075 0.251075
1006.12 6.66296e-09 1.00098 0.250316
1000 0 1.00075 0.251036
1006.07 6.64954e-09 1.00098 0.250395
1000 0 1.00075 0.251005
1006.03 6.63419e-09 1.00098 0.250419
1000 0 1.00075 0.250966
1005.55 6.46768e-09 1.00097 0.250043
1005.55 6.46563e-09 1.00097 0.249963
1005.45 6.34461e-09 1.00097 0.249348
1005.45 6.33622e-09 1.00097 0.249253
1005.55 6.46021e-09 1.00097 0.249782
1005.78 6.74175e-09 1.00097 0.250584
1005.56 6.458e-09 1.00097 0.249767
1005.44 6.32958e-09 1.00097 0.249193
1005.45 6.34146e-09 1.00097 0.249321
1005.46 6.36119e-09 1.00097 0.248774
1005.46 6.34954e-09 1.00097 0.249344
1005.46 6.36298e-09 1.00097 0.248802
1005.44 6.32415e-09 1.00097 0.24919
1005.46 6.3728e-09 1.00096 0.248774
1005.46 6.35759e-09 1.00097 0.248798
1005.45 6.33318e-09 1.00096 0.24841
1005.47 6.36566e-09 1.00097 0.2488
1005.46 6.35759e-09 1.00097 0.248254
1005.55 6.46172e-09 1.00097 0.249808
1005.55 6.46593e-09 1.00098 0.249969
1005.45 6.33895e-09 1.00097 0.249298
1005.45 6.3442e-09 1.00097 0.249322
1005.96 6.63455e-09 1.00098 0.250249
1005.58 6.54163e-09 1.00098 0.25049
1005.5 6.40823e-09 1.00098 0.249944
1005.46 6.3586e-09 1.00097 0.249314
1005.47 6.36342e-09 1.00097 0.248673
1005.48 6.38283e-09 1.00097 0.248748
1005.51 6.40826e-09 1.00097 0.248901
1005.49 6.38876e-09 1.00097 0.248175
1005.56 6.5403e-09 1.00098 0.250777
1005.51 6.41543e-09 1.00098 0.250664
1005.54 6.53647e-09 1.00098 0.250908
1005.44 6.33531e-09 1.00097 0.249253
1005.45 6.33939e-09 1.00097 0.249327
1005.46 6.35317e-09 1.00097 0.248904
1005.46 6.3538e-09 1.00097 0.248778
1005.57 6.53953e-09 1.00098 0.250683
1005.51 6.41394e-09 1.00098 0.250319
1005.52 6.41979e-09 1.00098 0.249227
1005.47 6.37109e-09 1.00097 0.248681
1005.46 6.35124e-09 1.00097 0.248284
1005.5 6.40761e-09 1.00097 0.248193
1005.48 6.37582e-09 1.00097 0.248163
1005.48 6.3784e-09 1.00097 0.24754
1005.51 6.41472e-09 1.00098 0.25066
1005.53 6.43444e-09 1.00098 0.250285
1005.53 6.53085e-09 1.00098 0.251018
1005.51 6.41584e-09 1.00098 0.250777
1005.45 6.36063e-09 1.00097 0.248881
1005.46 6.36781e-09 1.00097 0.248864
1005.45 6.36769e-09 1.00096 0.24857
1005.45 6.36255e-09 1.00096 0.248347
1005.47 6.37086e-09 1.00097 0.248124
1005.46 6.35789e-09 1.00096 0.247913
1005.51 6.4146e-09 1.00098 0.250583
1005.47 6.37126e-09 1.00097 0.247456
1005.53 6.42555e-09 1.00098 0.24972
1005.52 6.43924e-09 1.00097 0.248467
1005.49 6.37661e-09 1.00097 0.247496
1005.48 6.38294e-09 1.00097 0.246948
1005.51 6.52905e-09 1.00098 0.251021
1005.51 6.41424e-09 1.00098 0.250968
1005.53 6.43251e-09 1.00098 0.250374
1005.53 6.43561e-09 1.00098 0.250271
1005.53 6.43561e-09 1.00098 0.250139
1006.09 6.62151e-09 1.00098 0.250279
1005.46 6.34968e-09 1.00097 0.24931
1005.55 6.54211e-09 1.00098 0.250984
1005.57 6.54629e-09 1.00098 0.250778
1005.51 6.41888e-09 1.00098 0.250644
1005.48 6.37925e-09 1.00097 0.249463
1005.48 6.39478e-09 1.00097 0.248666
1005.51 6.41888e-09 1.00098 0.250297
1005.52 6.42311e-09 1.00098 0.249292
1005.51 6.41362e-09 1.00097 0.249133
1005.51 6.42175e-09 1.00097 0.248951
1006.12 6.63662e-09 1.00098 0.250271
1005.54 6.53722e-09 1.00098 0.250964
1005.51 6.4185e-09 1.00098 0.25057
1005.51 6.41873e-09 1.00098 0.250834
1005.53 6.43578e-09 1.00098 0.25017
1005.48 6.42469e-09 1.00097 0.24875
1005.5 6.41096e-09 1.00097 0.248697
1005.47 6.34679e-09 1.00097 0.24798
1005.53 6.42738e-09 1.00098 0.249594
1005.51 6.41635e-09 1.00097 0.248372
1005.52 6.45551e-09 1.00098 0.248671
1005.53 6.53677e-09 1.00098 0.2509
1005.51 6.41805e-09 1.00098 0.251018
1005.53 6.43177e-09 1.00098 0.250023
1005.53 6.43382e-09 1.00098 0.250308
1005.53 6.44386e-09 1.00098 0.249836
1005.45 6.10245e-09 1.00097 0.248305
1005.49 6.40755e-09 1.00097 0.247777
1005.47 6.36662e-09 1.00097 0.246976
1005.53 6.47427e-09 1.00098 0.248823
1005.5 6.35435e-09 1.00097 0.24787
1005.51 6.53306e-09 1.00098 0.250848
1005.51 6.41676e-09 1.00098 0.251166
1005.52 6.41636e-09 1.00098 0.251211
1005.54 6.43859e-09 1.00098 0.250938
1005.52 6.41575e-09 1.00098 0.251207
1005.48 6.52391e-09 1.00098 0.250735
1005.49 6.52748e-09 1.00098 0.250753
1006.23 6.68175e-09 1.00094 0.25044
1005.5 6.53192e-09 1.00098 0.2508
1006.2 6.66558e-09 1.00094 0.250502
1000 0 1.00085 0.250696
1006.16 6.64832e-09 1.00093 0.250492
1000 0 1.0008 0.250825
1000 0 1.00075 0.251101
1006.16 6.6807e-09 1.00098 0.250279
1006.11 6.66628e-09 1.00098 0.250341
1000 0 1.00075 0.251065
1000 0 1.00075 0.25104
1006.07 6.64606e-09 1.00098 0.250412
1000 0 1.00075 0.251009
1005.46 6.34923e-09 1.00097 0.249337
1005.45 6.34118e-09 1.00097 0.249319
1005.46 6.3631e-09 1.00097 0.248802
1005.46 6.36109e-09 1.00097 0.248739
1005.44 6.32925e-09 1.00097 0.24919
1005.55 6.46066e-09 1.00097 0.249762
1005.44 6.32465e-09 1.00097 0.249189
1005.46 6.37304e-09 1.00096 0.248787
1005.46 6.35757e-09 1.00097 0.248799
1005.45 6.33347e-09 1.00096 0.248353
1005.47 6.36572e-09 1.00097 0.248796
1005.46 6.35775e-09 1.00097 0.24822
1005.46 6.40798e-09 1.00096 0.248837
1005.45 6.29887e-09 1.00096 0.248495
1005.46 6.36898e-09 1.00096 0.248256
1005.46 6.31715e-09 1.00096 0.248074
1005.47 6.3887e-09 1.00097 0.248278
1005.46 6.28165e-09 1.00096 0.247796
1005.44 6.33497e-09 1.00097 0.249234
1005.45 6.33919e-09 1.00097 0.249316
1005.46 6.35316e-09 1.00097 0.248877
1005.46 6.354e-09 1.00097 0.24879
1005.57 6.54159e-09 1.00098 0.250692
1005.51 6.41412e-09 1.00098 0.250319
1005.52 6.41961e-09 1.00098 0.249257
1005.47 6.37107e-09 1.00097 0.248722
1005.46 6.3515e-09 1.00097 0.248236
1005.48 6.3758e-09 1.00097 0.248176
1005.5 6.40707e-09 1.00097 0.248151
1005.48 6.37846e-09 1.00097 0.24749
1005.51 6.41458e-09 1.00098 0.250665
1005.53 6.43428e-09 1.00098 0.250291
1005.53 6.53242e-09 1.00098 0.250983
1005.51 6.41595e-09 1.00098 0.250804
1005.46 6.36104e-09 1.00097 0.248885
1005.46 6.3683e-09 1.00097 0.248868
1005.45 6.36861e-09 1.00096 0.248576
1005.45 6.36358e-09 1.00096 0.248363
1005.51 6.41449e-09 1.00098 0.25059
1005.53 6.42541e-09 1.00098 0.249771
1005.52 6.43996e-09 1.00097 0.248437
1005.47 6.37168e-09 1.00097 0.248166
1005.46 6.35934e-09 1.00096 0.247914
1005.49 6.37738e-09 1.00097 0.24749
1005.47 6.37249e-09 1.00097 0.247457
1005.48 6.38356e-09 1.00097 0.246974
1005.53 6.43225e-09 1.00098 0.250381
1005.53 6.43548e-09 1.00098 0.250138
1005.53 6.43547e-09 1.00098 0.250261
1005.51 6.52768e-09 1.00098 0.251002
1005.51 6.41414e-09 1.00098 0.250987
1005.45 6.28767e-09 1.00096 0.248496
1005.45 6.28682e-09 1.00096 0.24836
1005.44 6.29697e-09 1.00096 0.24787
1005.45 6.30444e-09 1.00097 0.247553
1005.53 6.42945e-09 1.00098 0.250238
1005.46 6.3038e-09 1.00097 0.246301
1005.53 6.46484e-09 1.00098 0.249086
1005.5 6.35341e-09 1.00097 0.247614
1005.49 6.39675e-09 1.00097 0.246761
1005.5 6.52443e-09 1.00098 0.250962
1005.51 6.40975e-09 1.00098 0.251109
1005.53 6.44124e-09 1.00098 0.250453
1005.53 6.43971e-09 1.00098 0.250201
1005.53 6.44347e-09 1.00098 0.249922
1005.53 6.43663e-09 1.00098 0.250096
1006.13 6.63365e-09 1.00098 0.250251
1005.54 6.53872e-09 1.00098 0.250983
1005.47 6.42364e-09 1.00097 0.248748
1005.51 6.41896e-09 1.00098 0.250838
1005.51 6.41833e-09 1.00098 0.250575
1005.53 6.43615e-09 1.00098 0.250156
1005.5 6.41089e-09 1.00097 0.248687
1005.47 6.34594e-09 1.00097 0.247948
1005.53 6.4274e-09 1.00098 0.249607
1005.52 6.45529e-09 1.00098 0.248686
1005.51 6.41668e-09 1.00097 0.248445
1005.53 6.53542e-09 1.00098 0.25091
1005.51 6.41784e-09 1.00098 0.251041
1005.53 6.4315e-09 1.00098 0.250029
1005.53 6.43349e-09 1.00098 0.250312
1005.53 6.44369e-09 1.00098 0.249809
1005.45 6.09935e-09 1.00097 0.248272
1005.49 6.4091e-09 1.00097 0.247796
1005.47 6.36481e-09 1.00097 0.246919