# vtk DataFile Version 2.0
Wound Healing Simulation
ASCII
DATASET UNSTRUCTURED_GRID
POINTS 3012 float
69.9759 18.75 4
67.2507 60.3285 4
69.976 18.75 2
73.0099 25.446 4
71.1327 20.9142 4
68.6801 16.6661 4
67.8271 19.9187 3.99063
67.2507 60.3286 2
71.1327 54.0858 4
68.6801 58.3339 4
65.6939 62.2254 4
65.3135 59.008 3.99206
74.6784 42.3946 4
73.7221 47.2057 4
69.9759 18.75 0
73.0099 25.446 2
68.6801 16.6661 2
71.1327 20.9142 2
67.8271 19.9187 2
74.6792 32.6053 4
73.7222 27.7943 4
72.1454 23.1494 4
70.6167 26.2181 3.98906
68.8877 21.9519 3.99003
67.2507 14.6715 4
66.6384 17.9642 3.99141
65.8046 21.0135 3.98653
67.2507 60.3285 0
71.1327 54.0858 2
68.6801 58.3339 2
65.694 62.2255 2
65.3135 59.0081 2
72.1454 51.8506 4
69.9759 56.25 4
68.8387 53.1191 3.99009
64.0165 64.0165 4
66.6121 57.1411 3.99155
63.8869 60.7716 3.99255
63.5054 57.786 3.9873
60.3285 67.2507 4
74.6792 42.3947 2
73.7222 47.2057 2
74.9194 39.9526 4
74.2788 44.8158 4
72.1708 42.0862 3.98896
73.0099 49.554 4
71.2522 46.5998 3.98934
73.0099 25.446 0
71.1327 20.9142 0
68.6801 16.6661 0
67.8271 19.9187 0.00937135
74.6792 32.6053 2
73.7222 27.7943 2
67.2508 14.6715 2
72.1455 23.1494 2
70.6167 26.2184 2
66.6384 17.9641 2
68.8878 21.952 2
65.8046 21.0136 2
74.9197 35.0474 4
74.2794 30.1841 4
72.1873 32.9422 3.98899
71.2808 28.4295 3.9889
69.818 24.0552 3.98952
68.3555 26.9454 3.98481
66.7708 22.9235 3.98615
65.694 12.7746 4
65.3249 16.0964 3.99211
64.7202 19.181 3.98698
63.9004 22.0179 3.98467
71.1327 54.0858 0
65.6939 62.2254 0
68.6801 58.3339 0
65.3135 59.008 0.00793883
72.1455 51.8506 2
69.9759 56.25 2
68.8388 53.1191 2
64.0165 64.0165 2
66.6121 57.1412 2
63.887 60.7717 2
63.5055 57.7861 2
62.2254 65.694 4
58.8938 65.4177 3.99291
69.7716 50.9933 3.98958
67.7855 55.1745 3.99087
66.6585 52.2192 3.98636
62.3369 62.4321 3.9928
64.6673 56.0449 3.98735
62.2062 59.4187 3.98771
61.8322 56.7012 3.98565
58.3339 68.6801 4
60.3285 67.2508 2
73.7221 47.2057 0
74.6784 42.3946 0
74.9197 39.9526 2
74.2794 44.8159 2
72.1708 42.0859 2
73.0099 49.554 2
71.2522 46.5996 2
75 37.5 4
72.4079 39.8023 3.98878
71.7853 44.354 3.98923
69.8128 41.7917 3.98423
70.578 48.8164 3.98938
68.9217 46.0196 3.9848
74.6792 32.6053 0
73.7222 27.7943 0
67.2507 14.6715 0
72.1454 23.1494 0
70.6167 26.2181 0.0109446
68.8877 21.9519 0.0099651
66.6384 17.9642 0.00859403
65.8046 21.0135 0.0134653
74.9197 35.0474 2
74.2794 30.1841 2
72.1872 32.9426 2
71.2808 28.4298 2
65.694 12.7745 2
65.3249 16.0964 2
69.818 24.0554 2
68.3554 26.9455 2
64.7202 19.1811 2
66.7708 22.9236 2
63.9003 22.0181 2
72.4157 35.2234 3.98878
71.8065 30.6749 3.98907
69.8483 33.2662 3.98408
68.9746 29.0337 3.98418
67.6199 24.9042 3.98559
66.2096 27.6247 3.98297
64.0165 10.9835 4
64.7712 23.8151 3.98437
63.891 14.3215 3.99249
63.5179 17.4319 3.98748
62.9185 20.3009 3.985
62.1118 22.9211 3.9838
60.6843 11.0935 3.99267
57.6125 11.4377 3.98801
72.1454 51.8506 0
69.9759 56.25 0
68.8387 53.1191 0.00990842
64.0165 64.0165 0
63.8869 60.7716 0.00744619
66.6121 57.1411 0.00844632
63.5054 57.786 0.0127039
62.2255 65.694 2
58.8939 65.4178 2
69.7717 50.9932 2
67.7856 55.1746 2
66.6586 52.219 2
62.337 62.4322 2
64.6675 56.0449 2
62.2062 59.4189 2
61.8324 56.7013 2
60.6689 63.9811 3.99283
57.0242 66.7379 3.99304
57.5577 63.6998 3.98834
67.5169 50.1848 3.98575
65.71 54.1852 3.98705
64.5535 51.401 3.98427
60.7749 60.9506 3.98819
62.8318 55.0873 3.98585
60.665 58.1789 3.98566
60.3405 55.8103 3.98487
56.25 69.9759 4
58.3339 68.6801 2
60.3285 67.2507 0
58.9211 9.6522 3.99277
62.2254 9.30607 4
73.0099 49.554 0
74.2788 44.8158 0
71.2522 46.5998 0.0106586
72.1708 42.0862 0.0110369
74.9194 39.9526 0
75 37.5 2
72.4077 39.8021 2
71.7853 44.3537 2
69.8126 41.7914 2
70.5781 48.8162 2
68.9216 46.0192 2
72.4912 37.5117 3.98873
70.0494 39.6582 3.9836
69.4395 43.9108 3.98459
67.6129 41.5017 3.98217
68.2755 48.1135 3.98523
66.7262 45.4483 3.98306
74.9197 35.0474 0
74.2794 30.1841 0
72.1873 32.9422 0.0110072
71.2808 28.4295 0.0110989
65.694 12.7746 0
65.3249 16.0964 0.00788978
69.818 24.0552 0.0104792
68.3555 26.9454 0.0151942
66.7708 22.9235 0.0138495
64.7202 19.181 0.0130168
63.9004 22.0179 0.0153336
72.4156 35.2238 2
71.8064 30.6753 2
69.8481 33.2663 2
68.9745 29.0338 2
64.0165 10.9835 2
63.8911 14.3214 2
63.518 17.4319 2
67.6199 24.9043 2
66.2093 27.6247 2
62.9185 20.3011 2
64.771 23.8152 2
62.1116 22.9214 2
60.6844 11.0935 2
57.6126 11.4375 2
70.0661 35.3907 3.9839
69.4756 31.1462 3.98411
67.6702 33.5868 3.98197
66.787 29.615 3.98228
65.5391 25.6868 3.98377
64.1676 28.2418 3.98233
62.3423 12.6503 3.99262
62.8776 24.6175 3.98368
62.2017 15.7703 3.98783
61.8224 18.6646 3.98558
61.2339 21.3178 3.98377
60.4499 23.7017 3.98362
59.2471 12.7675 3.98796
55.8741 10.2253 3.98832
56.4066 13.1001 3.98526
69.7716 50.9933 0.0104188
62.2254 65.694 0
58.8938 65.4177 0.00709435
67.7855 55.1745 0.00912707
66.6585 52.2192 0.0136395
62.3369 62.4321 0.00719736
62.2062 59.4187 0.0122899
64.6673 56.0449 0.0126509
61.8322 56.7012 0.0143474
60.669 63.9812 2
57.0243 66.7381 2
57.5578 63.7 2
67.517 50.1846 2
65.7102 54.1851 2
64.5535 51.4009 2
60.775 60.9508 2
62.832 55.0872 2
60.6651 58.179 2
60.3406 55.8102 2
55.0697 67.9344 3.9932
59.2201 62.3767 3.98828
55.8036 64.9159 3.9885
56.3281 62.1007 3.98578
65.3483 49.4216 3.98377
63.7203 53.3103 3.98525
62.4643 50.6727 3.98318
59.3373 59.5738 3.986
61.0929 54.3331 3.98511
59.2984 57.0362 3.98435
59.2569 55.2101 3.98503
48.1017 68.5814 3.98958
50.9477 69.9333 3.99351
54.0858 71.1327 4
56.25 69.976 2
58.3339 68.6801 0
57.0581 8.33248 3.99299
60.3285 7.74928 4
58.9212 9.65213 2
62.2255 9.30602 2
70.578 48.8164 0.0106219
71.7853 44.354 0.0107735
68.9217 46.0196 0.0151964
69.8128 41.7917 0.0157721
72.4079 39.8023 0.0112215
75 37.5 0
72.491 37.5119 2
70.0491 39.658 2
69.4394 43.9105 2
67.6125 41.5016 2
68.2755 48.1132 2
66.726 45.4482 2
70.1373 37.5213 3.98352
67.8492 39.5142 3.98163
67.2397 43.4762 3.98265
65.5782 41.2158 3.98151
66.0854 47.4288 3.98344
64.6756 44.8602 3.98242
72.4157 35.2234 0.011221
71.8065 30.6749 0.0109275
69.8483 33.2662 0.0159176
68.9746 29.0337 0.0158234
64.0165 10.9835 0
63.891 14.3215 0.00751302
63.5179 17.4319 0.0125162
67.6199 24.9042 0.0144081
66.2096 27.6247 0.0170255
64.7712 23.8151 0.0156255
62.9185 20.3009 0.0150024
62.1118 22.9211 0.0162037
60.6843 11.0935 0.00733196
57.6125 11.4377 0.0119932
70.0658 35.3908 2
69.4754 31.1463 2
67.6699 33.5867 2
66.7868 29.615 2
62.3424 12.6502 2
62.2018 15.7702 2
61.8225 18.6647 2
65.5389 25.6869 2
64.1672 28.2418 2
61.2338 21.3181 2
62.8772 24.6177 2
60.4495 23.7021 2
59.2471 12.7674 2
56.4066 13.1 2
55.8741 10.2251 2
67.8852 35.5453 3.98195
67.2802 31.6164 3.98215
65.7188 33.9218 3.9813
64.6841 30.1813 3.98125
63.5595 26.3973 3.98312
62.2847 28.7608 3.98264
60.7767 14.2106 3.98795
61.0715 25.3143 3.98358
60.6182 17.109 3.98596
60.2348 19.7924 3.98436
59.6819 22.2313 3.98295
59.0067 24.2921 3.9839
54.037 9.12921 3.98884
57.9124 14.317 3.98561
54.7873 12.001 3.98519
55.3147 14.6311 3.98416
67.5169 50.1848 0.014246
57.0242 66.7379 0.00695891
60.6689 63.9811 0.00717082
57.5577 63.6998 0.0116603
65.71 54.1852 0.0129462
64.5535 51.401 0.0157294
60.7749 60.9506 0.0118054
60.665 58.1789 0.0143441
62.8318 55.0873 0.0141465
60.3405 55.8103 0.0151295
55.0698 67.9346 2
59.2202 62.3769 2
55.8036 64.9162 2
56.3282 62.101 2
65.3483 49.4215 2
63.7204 53.3103 2
62.4642 50.6725 2
59.3375 59.5741 2
61.0931 54.333 2
59.2985 57.0362 2
59.2571 55.21 2
53.0417 69.0018 3.99336
53.9655 66.0173 3.98871
57.8831 60.8839 3.98592
54.6838 63.2148 3.98585
55.2137 60.6285 3.98456
63.218 48.6791 3.98293
61.7615 52.598 3.9843
60.3028 50.044 3.98257
58.024 58.2811 3.9848
59.3457 53.9747 3.9844
58.1387 55.8399 3.98318
50.108 67.8597 3.98927
47.462 66.5846 3.98665
46.0557 69.1606 3.98982
48.1018 68.5817 2
48.8021 70.7243 3.99366
50.9478 69.9335 2
51.8506 72.1454 4
54.0858 71.1327 2
56.25 69.9759 0
55.1025 7.13735 3.99324
58.3339 6.31992 4
57.0583 8.33237 2
60.3286 7.74926 2
58.9211 9.6522 0.00723204
62.2254 9.30607 0
68.2755 48.1135 0.0147739
69.4395 43.9108 0.015406
66.7262 45.4483 0.0169361
67.6129 41.5017 0.0178341
70.0494 39.6582 0.0163964
72.4912 37.5117 0.0112691
70.137 37.5212 2
67.8487 39.5142 2
67.2394 43.4761 2
65.5778 41.2158 2
66.0853 47.4287 2
64.6753 44.8601 2
67.9452 37.5218 3.98141
65.8091 39.3732 3.98119
65.1989 43.0343 3.98184
63.7843 40.9371 3.98157
63.9894 46.7316 3.98271
62.8372 44.2308 3.98271
70.0661 35.3907 0.0160986
69.4756 31.1462 0.015888
67.6702 33.5868 0.0180279
66.787 29.615 0.0177204
62.3423 12.6503 0.00738085
62.2017 15.7703 0.0121696
61.8224 18.6646 0.0144171
65.5391 25.6868 0.0162266
64.1676 28.2418 0.0176709
62.8776 24.6175 0.0163201
61.2339 21.3178 0.0162304
60.4499 23.7017 0.0163782
59.2471 12.7675 0.0120355
56.4066 13.1001 0.0147401
55.8741 10.2253 0.0116826
67.8848 35.5452 2
67.2799 31.6163 2
65.7183 33.9215 2
64.6836 30.1812 2
60.7768 14.2105 2
60.6183 17.109 2
60.2348 19.7927 2
63.5591 26.3974 2
62.2841 28.7608 2
59.6816 22.2317 2
61.071 25.3146 2
59.0062 24.2926 2
57.9124 14.3169 2
55.3148 14.6311 2
54.0371 9.12887 2
54.7873 12.0008 2
65.8976 35.6639 3.98117
65.2075 32.1461 3.98106
64.3101 34.2438 3.98047
62.6227 30.622 3.98139
61.6789 27.0517 3.98302
60.8826 29.1215 3.98399
59.3137 15.6522 3.98589
59.3627 25.7703 3.98442
59.1311 18.3336 3.98508
58.7557 20.8273 3.9832
58.3096 23.063 3.98229
57.9992 24.6355 3.98469
52.1117 8.14799 3.98936
53.058 11.008 3.98563
56.6794 15.7253 3.98482
53.811 13.6684 3.98353
54.379 15.9824 3.9839
55.0697 67.9344 0.00680297
65.3483 49.4216 0.0162303
55.8036 64.9159 0.0115038
59.2201 62.3767 0.0117227
56.3281 62.1007 0.014221
63.7203 53.3103 0.0147507
62.4643 50.6727 0.016818
59.3373 59.5738 0.0139976
59.2984 57.0362 0.015647
61.0929 54.3331 0.0148908
59.2569 55.2101 0.0149696
53.0418 69.002 2
53.9655 66.0176 2
57.8832 60.8842 2
54.6839 63.2151 2
55.2138 60.6287 2
63.2178 48.6789 2
61.7616 52.5979 2
60.3027 50.0437 2
58.0242 58.2812 2
59.3459 53.9745 2
58.1389 55.8398 2
52.0689 67.0032 3.98897
52.9526 64.2238 3.98592
56.652 59.5049 3.98493
[...]
POINT_DATA 3012
SCALARS Jp_lamdaP float 4
LOOKUP_TABLE default
1 1 1 1
1 1 1 1
1 1 1 1
1 1 1 1
1 1 1 1
1 1 1 1
0.99999 1 1 0.99999
1 1 1 1
1 1 1 1
1 1 1 1
1 1 1 1
1 1 1 1
1 1 1 1
1 1 1 1
1 1 1 1
1 1 1 1
1 1 1 1
1 1 1 1
0.999991 1 1 0.999991
1 1 1 1
1 1 1 1
1 1 1 1
0.999976 1 1 0.999976
0.999987 1 1 0.999987
1 1 1 1
0.999993 1 1 0.999993
0.999956 1 1 0.999956
1 1 1 1
1 1 1 1
1 1 1 1
1 1 1 1
1 1 1 1
1 1 1 1
1 1 1 1
0.999998 1 1 0.999998
1 1 1 1
1 1 1 1
1 1 1 1
0.999969 1 1 0.999969
1 1 1 1
1 1 1 1
1 1 1 1
1 1 1 1
1 1 1 1
0.999984 1 1 0.999984
1 1 1 1
0.999991 1 1 0.999991
1 1 1 1
1 1 1 1
1 1 1 1
0.999991 1 1 0.999991
1 1 1 1
1 1 1 1
1 1 1 1
1 1 1 1
0.999976 1 1 0.999976
0.999994 1 1 0.999994
0.999987 1 1 0.999987
0.999955 1 1 0.999955
1 1 1 1
1 1 1 1
0.999985 1 1 0.999985
0.999971 1 1 0.999971
0.999982 1 1 0.999982
0.999919 1 1 0.999919
0.99994 1 1 0.99994
1 1 1 1
0.999996 1 1 0.999996
0.999966 1 1 0.999966
0.999887 1 1 0.999887
1 1 1 1
1 1 1 1
1 1 1 1
1 1 1 1
1 1 1 1
1 1 1 1
0.999999 1 1 0.999999
1 1 1 1
1 1 1 1
1 1 1 1
0.999969 1 1 0.999969
1 1 1 1
1 1 1 1
0.999996 1 1 0.999996
1 1 1 1
0.999934 1 1 0.999934
1 1 1 1
0.999961 1 1 0.999961
0.999976 1 1 0.999976
0.999914 1 1 0.999914
1 1 1 1
1 1 1 1
1 1 1 1
1 1 1 1
1 1 1 1
1 1 1 1
0.999985 1 1 0.999985
1 1 1 1
0.999992 1 1 0.999992
1 1 1 1
0.999982 1 1 0.999982
0.999988 1 1 0.999988
0.999892 1 1 0.999892
0.999993 1 1 0.999993
0.999904 1 1 0.999904
1 1 1 1
1 1 1 1
1 1 1 1
1 1 1 1
0.999977 1 1 0.999977
0.999988 1 1 0.999988
0.999994 1 1 0.999994
0.999954 1 1 0.999954
1 1 1 1
1 1 1 1
0.999976 1 1 0.999976
0.999971 1 1 0.999971
1 1 1 1
0.999998 1 1 0.999998
0.999983 1 1 0.999983
0.999915 1 1 0.999915
0.999964 1 1 0.999964
0.999943 1 1 0.999943
0.999888 1 1 0.999888
0.999983 1 1 0.999983
0.999969 1 1 0.999969
0.999895 1 1 0.999895
0.999902 1 1 0.999902
0.999926 1 1 0.999926
0.999854 1 1 0.999854
1 1 1 1
0.99988 1 1 0.99988
1 1 1 1
0.999971 1 1 0.999971
0.999895 1 1 0.999895
0.99986 1 1 0.99986
1 1 1 1
0.999981 1 1 0.999981
1 1 1 1
1 1 1 1
0.999999 1 1 0.999999
1 1 1 1
1 1 1 1
1 1 1 1
0.99997 1 1 0.99997
1 1 1 1
1 1 1 1
0.999996 1 1 0.999996
1 1 1 1
0.999934 1 1 0.999934
1 1 1 1
0.999962 1 1 0.999962
0.999977 1 1 0.999977
0.999911 1 1 0.999911
1 1 1 1
1 1 1 1
0.999985 1 1 0.999985
0.999921 1 1 0.999921
0.999949 1 1 0.999949
0.999874 1 1 0.999874
0.999982 1 1 0.999982
0.999903 1 1 0.999903
0.999918 1 1 0.999918
0.999886 1 1 0.999886
1 1 1 1
1 1 1 1
1 1 1 1
1 1 1 1
1 1 1 1
1 1 1 1
1 1 1 1
0.999992 1 1 0.999992
0.999986 1 1 0.999986
1 1 1 1
1 1 1 1
0.999983 1 1 0.999983
0.999989 1 1 0.999989
0.999892 1 1 0.999892
0.999994 1 1 0.999994
0.999904 1 1 0.999904
0.999982 1 1 0.999982
0.999888 1 1 0.999888
0.999897 1 1 0.999897
0.999843 1 1 0.999843
0.999912 1 1 0.999912
0.999853 1 1 0.999853
1 1 1 1
1 1 1 1
0.999967 1 1 0.999967
0.999971 1 1 0.999971
1 1 1 1
1 1 1 1
0.999983 1 1 0.999983
0.99991 1 1 0.99991
0.999946 1 1 0.999946
0.999963 1 1 0.999963
0.999888 1 1 0.999888
0.999983 1 1 0.999983
0.999969 1 1 0.999969
0.999886 1 1 0.999886
0.999904 1 1 0.999904
1 1 1 1
1 1 1 1
0.999972 1 1 0.999972
0.999927 1 1 0.999927
0.999849 1 1 0.999849
0.999894 1 1 0.999894
0.999883 1 1 0.999883
0.99986 1 1 0.99986
1 1 1 1
0.999981 1 1 0.999981
0.999886 1 1 0.999886
0.999896 1 1 0.999896
0.999839 1 1 0.999839
0.999833 1 1 0.999833
0.999873 1 1 0.999873
0.999828 1 1 0.999828
1 1 1 1
0.999855 1 1 0.999855
0.999977 1 1 0.999977
0.999905 1 1 0.999905
0.999867 1 1 0.999867
0.999852 1 1 0.999852
0.99998 1 1 0.99998
0.999983 1 1 0.999983
0.999918 1 1 0.999918
0.999997 1 1 0.999997
1 1 1 1
1 1 1 1
1 1 1 1
0.999934 1 1 0.999934
1 1 1 1
0.999977 1 1 0.999977
0.999962 1 1 0.999962
0.999909 1 1 0.999909
1 1 1 1
1 1 1 1
0.999985 1 1 0.999985
0.99992 1 1 0.99992
0.99995 1 1 0.99995
0.999873 1 1 0.999873
0.999983 1 1 0.999983
0.999905 1 1 0.999905
0.999918 1 1 0.999918
0.999883 1 1 0.999883
1 1 1 1
0.999985 1 1 0.999985
0.999986 1 1 0.999986
0.999927 1 1 0.999927
0.999864 1 1 0.999864
0.999891 1 1 0.999891
0.999845 1 1 0.999845
0.999924 1 1 0.999924
0.999876 1 1 0.999876
0.999879 1 1 0.999879
0.999865 1 1 0.999865
0.999991 1 1 0.999991
1 1 1 1
1 1 1 1
1 1 1 1
1 1 1 1
1 1 1 1
1 1 1 1
1 1 1 1
1 1 1 1
0.999994 1 1 0.999994
0.99999 1 1 0.99999
0.999904 1 1 0.999904
0.999891 1 1 0.999891
0.999983 1 1 0.999983
1 1 1 1
0.999982 1 1 0.999982
0.999888 1 1 0.999888
0.999897 1 1 0.999897
0.999843 1 1 0.999843
0.999912 1 1 0.999912
0.999853 1 1 0.999853
0.999887 1 1 0.999887
0.999843 1 1 0.999843
0.999846 1 1 0.999846
0.999826 1 1 0.999826
0.999859 1 1 0.999859
0.999835 1 1 0.999835
0.999982 1 1 0.999982
0.999969 1 1 0.999969
0.999877 1 1 0.999877
0.999907 1 1 0.999907
1 1 1 1
1 1 1 1
0.999973 1 1 0.999973
0.999927 1 1 0.999927
0.999844 1 1 0.999844
0.999886 1 1 0.999886
0.999893 1 1 0.999893
0.99986 1 1 0.99986
1 1 1 1
0.999981 1 1 0.999981
0.999883 1 1 0.999883
0.999896 1 1 0.999896
0.999838 1 1 0.999838
0.999838 1 1 0.999838
1 1 1 1
0.999977 1 1 0.999977
0.999908 1 1 0.999908
0.999873 1 1 0.999873
0.999826 1 1 0.999826
0.999863 1 1 0.999863
0.999855 1 1 0.999855
0.999851 1 1 0.999851
0.99998 1 1 0.99998
0.999915 1 1 0.999915
0.999982 1 1 0.999982
0.999843 1 1 0.999843
0.999834 1 1 0.999834
0.999813 1 1 0.999813
0.999811 1 1 0.999811
0.999846 1 1 0.999846
0.999827 1 1 0.999827
0.99998 1 1 0.99998
0.99985 1 1 0.99985
0.999919 1 1 0.999919
0.999869 1 1 0.999869
0.999845 1 1 0.999845
0.999859 1 1 0.999859
0.999986 1 1 0.999986
0.999921 1 1 0.999921
0.999909 1 1 0.999909
0.999885 1 1 0.999885
0.99992 1 1 0.99992
1 1 1 1
1 1 1 1
0.999985 1 1 0.999985
0.99995 1 1 0.99995
0.999873 1 1 0.999873
0.999983 1 1 0.999983
0.999918 1 1 0.999918
0.999906 1 1 0.999906
0.999881 1 1 0.999881
1 1 1 1
0.999985 1 1 0.999985
0.999986 1 1 0.999986
0.999927 1 1 0.999927
0.999863 1 1 0.999863
0.999891 1 1 0.999891
0.999845 1 1 0.999845
0.999924 1 1 0.999924
0.999879 1 1 0.999879
0.999879 1 1 0.999879
0.99987 1 1 0.99987
1 1 1 1
0.999987 1 1 0.999987
0.999927 1 1 0.999927
0.999927 1 1 0.999927
0.999884 1 1 0.999884
0.999841 1 1 0.999841
0.999861 1 1 0.999861
0.999836 1 1 0.999836
0.999882 1 1 0.999882
0.999861 1 1 0.999861
0.999843 1 1 0.999843
0.99999 1 1 0.99999
0.999936 1 1 0.999936
0.999993 1 1 0.999993
0.999992 1 1 0.999992
1 1 1 1
1 1 1 1
1 1 1 1
1 1 1 1
1 1 1 1
1 1 1 1
1 1 1 1
1 1 1 1
1 1 1 1
1 1 1 1
1 1 1 1
0.999911 1 1 0.999911
0.999897 1 1 0.999897
0.999853 1 1 0.999853
0.999843 1 1 0.999843
0.999888 1 1 0.999888
0.999982 1 1 0.999982
0.999887 1 1 0.999887
0.999842 1 1 0.999842
0.999846 1 1 0.999846
0.999826 1 1 0.999826
0.999859 1 1 0.999859
0.999835 1 1 0.999835
0.999841 1 1 0.999841
0.99983 1 1 0.99983
0.999827 1 1 0.999827
0.99982 1 1 0.99982
0.999841 1 1 0.999841
0.999839 1 1 0.999839
0.99988 1 1 0.99988
0.999896 1 1 0.999896
0.999837 1 1 0.999837
0.999844 1 1 0.999844
1 1 1 1
0.999976 1 1 0.999976
0.999912 1 1 0.999912
0.999874 1 1 0.999874
0.999825 1 1 0.999825
0.999855 1 1 0.999855
0.999859 1 1 0.999859
0.999851 1 1 0.999851
0.999981 1 1 0.999981
0.999912 1 1 0.999912
0.999982 1 1 0.999982
0.999841 1 1 0.999841
0.999834 1 1 0.999834
0.999811 1 1 0.999811
0.999812 1 1 0.999812
0.99998 1 1 0.99998
0.999919 1 1 0.999919
0.999873 1 1 0.999873
0.999848 1 1 0.999848
0.999828 1 1 0.999828
0.999842 1 1 0.999842
0.99985 1 1 0.99985
0.999861 1 1 0.999861
0.999921 1 1 0.999921
0.999882 1 1 0.999882
0.999986 1 1 0.999986
0.999909 1 1 0.999909
0.999817 1 1 0.999817
0.999805 1 1 0.999805
0.999796 1 1 0.999796
0.999809 1 1 0.999809
0.999846 1 1 0.999846
0.999836 1 1 0.999836
0.999923 1 1 0.999923
0.999864 1 1 0.999864
0.999882 1 1 0.999882
0.999845 1 1 0.999845
0.999834 1 1 0.999834
0.999864 1 1 0.999864
0.999989 1 1 0.999989
0.99991 1 1 0.99991
0.999887 1 1 0.999887
0.999872 1 1 0.999872
0.999865 1 1 0.999865
1 1 1 1
0.999863 1 1 0.999863
0.999986 1 1 0.999986
0.999985 1 1 0.999985
0.999926 1 1 0.999926
0.999891 1 1 0.999891
0.999845 1 1 0.999845
0.999924 1 1 0.999924
0.999878 1 1 0.999878
0.999882 1 1 0.999882
0.999874 1 1 0.999874
1 1 1 1
0.999987 1 1 0.999987
0.999927 1 1 0.999927
0.999927 1 1 0.999927
0.999883 1 1 0.999883
0.999841 1 1 0.999841
0.999861 1 1 0.999861
0.999834 1 1 0.999834
0.999882 1 1 0.999882
0.999863 1 1 0.999863
0.999846 1 1 0.999846
0.999988 1 1 0.999988
0.999928 1 1 0.999928
0.999883 1 1 0.999883
0.999882 1 1 0.999882
0.999864 1 1 0.999864
0.999838 1 1 0.999838
0.999847 1 1 0.999847
0.999848 1 1 0.999848
0.999848 1 1 0.999848
0.999827 1 1 0.999827
0.99999 1 1 0.99999
0.999924 1 1 0.999924
0.999932 1 1 0.999932
0.999892 1 1 0.999892
0.999939 1 1 0.999939
0.999994 1 1 0.999994
0.999993 1 1 0.999993
1 1 1 1
0.999992 1 1 0.999992
1 1 1 1
1 1 1 1
1 1 1 1
1 1 1 1
1 1 1 1
1 1 1 1
1 1 1 1
1 1 1 1
1 1 1 1
1 1 1 1
1 1 1 1
0.999859 1 1 0.999859
0.999846 1 1 0.999846
0.999835 1 1 0.999835
0.999826 1 1 0.999826
0.999842 1 1 0.999842
0.999887 1 1 0.999887
0.999841 1 1 0.999841
0.99983 1 1 0.99983
0.999827 1 1 0.999827
0.999819 1 1 0.999819
0.999841 1 1 0.999841
0.999839 1 1 0.999839
0.999828 1 1 0.999828
0.999828 1 1 0.999828
0.999822 1 1 0.999822
0.999813 1 1 0.999813
0.999844 1 1 0.999844
0.999845 1 1 0.999845
0.999838 1 1 0.999838
0.999833 1 1 0.999833
0.999808 1 1 0.999808
0.999814 1 1 0.999814
0.99998 1 1 0.99998
0.999919 1 1 0.999919
0.999876 1 1 0.999876
0.99985 1 1 0.99985
0.999829 1 1 0.999829
0.99985 1 1 0.99985
0.999839 1 1 0.999839
0.999863 1 1 0.999863
0.999921 1 1 0.999921
0.999878 1 1 0.999878
0.999986 1 1 0.999986
0.999909 1 1 0.999909
0.999818 1 1 0.999818
0.999806 1 1 0.999806
0.999794 1 1 0.999794
0.99981 1 1 0.99981
0.999923 1 1 0.999923
0.999885 1 1 0.999885
0.999845 1 1 0.999845
0.999845 1 1 0.999845
0.99984 1 1 0.99984
0.999833 1 1 0.999833
0.999864 1 1 0.999864
0.99987 1 1 0.99987
0.999887 1 1 0.999887
0.999863 1 1 0.999863
0.999871 1 1 0.999871
0.999984 1 1 0.999984
0.999911 1 1 0.999911
0.999807 1 1 0.999807
0.999787 1 1 0.999787
0.99982 1 1 0.99982
0.999856 1 1 0.999856
0.99989 1 1 0.99989
0.999883 1 1 0.999883
0.999859 1 1 0.999859
0.999819 1 1 0.999819
0.999828 1 1 0.999828
0.999982 1 1 0.999982
0.999926 1 1 0.999926
0.999868 1 1 0.999868
0.999869 1 1 0.999869
0.999842 1 1 0.999842
0.999849 1 1 0.999849
1 1 1 1
0.999987 1 1 0.999987
0.99984 1 1 0.99984
0.999927 1 1 0.999927
0.999927 1 1 0.999927
0.999881 1 1 0.999881
0.999861 1 1 0.999861
0.999833 1 1 0.999833
0.999882 1 1 0.999882
0.999848 1 1 0.999848
0.999864 1 1 0.999864
0.999989 1 1 0.999989
0.999927 1 1 0.999927
0.999885 1 1 0.999885
0.999882 1 1 0.999882
0.999862 1 1 0.999862
0.999838 1 1 0.999838
0.999846 1 1 0.999846
0.99985 1 1 0.99985
0.999846 1 1 0.999846
0.999824 1 1 0.999824
0.999929 1 1 0.999929
0.999874 1 1 0.999874
0.999856 1 1 0.999856
0.999852 1 1 0.999852
0.999846 1 1 0.999846
0.999873 1 1 0.999873
0.999827 1 1 0.999827
0.999844 1 1 0.999844
0.999824 1 1 0.999824
0.99979 1 1 0.99979
0.999991 1 1 0.999991
0.999927 1 1 0.999927
0.999876 1 1 0.999876
0.999928 1 1 0.999928
0.999939 1 1 0.999939
0.999886 1 1 0.999886
0.999855 1 1 0.999855
0.999882 1 1 0.999882
0.999941 1 1 0.999941
0.999994 1 1 0.999994
0.999994 1 1 0.999994
1 1 1 1
0.999993 1 1 0.999993
1 1 1 1
1 1 1 1
1 1 1 1
1 1 1 1
1 1 1 1
1 1 1 1
1 1 1 1
1 1 1 1
1 1 1 1
1 1 1 1
1 1 1 1
0.99984 1 1 0.99984
0.999827 1 1 0.999827
0.999838 1 1 0.999838
0.999817 1 1 0.999817
0.999831 1 1 0.999831
0.999841 1 1 0.999841
0.999828 1 1 0.999828
0.999828 1 1 0.999828
0.999821 1 1 0.999821
0.999808 1 1 0.999808
0.999844 1 1 0.999844
0.999847 1 1 0.999847
0.999834 1 1 0.999834
0.999824 1 1 0.999824
0.999818 1 1 0.999818
0.999873 1 1 0.999873
0.999818 1 1 0.999818
0.999806 1 1 0.999806
0.999791 1 1 0.999791
0.99981 1 1 0.99981
0.999923 1 1 0.999923
0.999888 1 1 0.999888
0.999845 1 1 0.999845
0.999844 1 1 0.999844
0.999844 1 1 0.999844
0.999864 1 1 0.999864
0.999831 1 1 0.999831
0.999875 1 1 0.999875
0.999887 1 1 0.999887
0.999861 1 1 0.999861
0.999871 1 1 0.999871
0.999979 1 1 0.999979
0.999912 1 1 0.999912
0.999804 1 1 0.999804
0.99979 1 1 0.99979
0.999821 1 1 0.999821
0.99989 1 1 0.99989
0.999863 1 1 0.999863
0.999818 1 1 0.999818
0.999854 1 1 0.999854
0.999834 1 1 0.999834
0.999882 1 1 0.999882
0.999982 1 1 0.999982
0.999869 1 1 0.999869
0.99985 1 1 0.99985
0.999844 1 1 0.999844
0.99987 1 1 0.99987
0.999921 1 1 0.999921
0.999799 1 1 0.999799
0.999788 1 1 0.999788
0.999841 1 1 0.999841
0.999881 1 1 0.999881
0.99987 1 1 0.99987
0.999855 1 1 0.999855
0.999828 1 1 0.999828
0.999799 1 1 0.999799
0.999986 1 1 0.999986
0.999931 1 1 0.999931
0.999877 1 1 0.999877
0.999827 1 1 0.999827
0.99985 1 1 0.99985
0.999828 1 1 0.999828
0.999989 1 1 0.999989
0.999927 1 1 0.999927
0.999837 1 1 0.999837
0.999881 1 1 0.999881
0.999888 1 1 0.999888
0.999859 1 1 0.999859
0.999845 1 1 0.999845
0.999852 1 1 0.999852
0.999844 1 1 0.999844
0.99982 1 1 0.99982
0.999929 1 1 0.999929
0.999876 1 1 0.999876
0.999859 1 1 0.999859
0.999855 1 1 0.999855
0.999848 1 1 0.999848
0.999875 1 1 0.999875
0.999829 1 1 0.999829
0.999854 1 1 0.999854
0.999822 1 1 0.999822
0.999787 1 1 0.999787
0.999873 1 1 0.999873
0.999838 1 1 0.999838
0.999833 1 1 0.999833
0.999832 1 1 0.999832
0.999882 1 1 0.999882
0.999877 1 1 0.999877
0.999792 1 1 0.999792
0.999773 1 1 0.999773
0.999931 1 1 0.999931
0.999879 1 1 0.999879
0.999849 1 1 0.999849
0.999939 1 1 0.999939
0.99988 1 1 0.99988
0.999941 1 1 0.999941
0.999851 1 1 0.999851
0.999884 1 1 0.999884
0.999828 1 1 0.999828
0.999847 1 1 0.999847
0.999883 1 1 0.999883
0.999941 1 1 0.999941
0.999994 1 1 0.999994
0.999994 1 1 0.999994
1 1 1 1
0.999994 1 1 0.999994
1 1 1 1
1 1 1 1
1 1 1 1
1 1 1 1
1 1 1 1
1 1 1 1
1 1 1 1
1 1 1 1
1 1 1 1
1 1 1 1
1 1 1 1
0.999845 1 1 0.999845
0.99982 1 1 0.99982
0.999849 1 1 0.999849
0.999803 1 1 0.999803
0.999828 1 1 0.999828
0.999828 1 1 0.999828
0.99983 1 1 0.99983
0.999823 1 1 0.999823
0.999821 1 1 0.999821
0.99987 1 1 0.99987
0.999829 1 1 0.999829
0.999825 1 1 0.999825
0.999851 1 1 0.999851
0.9998 1 1 0.9998
0.999793 1 1 0.999793
0.999823 1 1 0.999823
0.99989 1 1 0.99989
0.999867 1 1 0.999867
0.999817 1 1 0.999817
0.999852 1 1 0.999852
0.999881 1 1 0.999881
0.99984 1 1 0.99984
0.999869 1 1 0.999869
0.999852 1 1 0.999852
0.999846 1 1 0.999846
0.999982 1 1 0.999982
0.999872 1 1 0.999872
0.999916 1 1 0.999916
0.999805 1 1 0.999805
0.999786 1 1 0.999786
0.999837 1 1 0.999837
0.99987 1 1 0.99987
0.999832 1 1 0.999832
0.999802 1 1 0.999802
0.999884 1 1 0.999884
0.999854 1 1 0.999854
0.999991 1 1 0.999991
0.999931 1 1 0.999931
0.99985 1 1 0.99985
0.999829 1 1 0.999829
0.99983 1 1 0.99983
0.999874 1 1 0.999874
0.999814 1 1 0.999814
0.999794 1 1 0.999794
0.999887 1 1 0.999887
0.999892 1 1 0.999892
0.999845 1 1 0.999845
0.999801 1 1 0.999801
0.999805 1 1 0.999805
0.999998 1 1 0.999998
0.999953 1 1 0.999953
0.999933 1 1 0.999933
0.999873 1 1 0.999873
0.999831 1 1 0.999831
0.999806 1 1 0.999806
0.999835 1 1 0.999835
0.999811 1 1 0.999811
0.999929 1 1 0.999929
0.999878 1 1 0.999878
0.999878 1 1 0.999878
0.999858 1 1 0.999858
0.999863 1 1 0.999863
0.999849 1 1 0.999849
0.99983 1 1 0.99983
0.999864 1 1 0.999864
0.999819 1 1 0.999819
0.999783 1 1 0.999783
0.999873 1 1 0.999873
0.999842 1 1 0.999842
0.999836 1 1 0.999836
0.999834 1 1 0.999834
0.999882 1 1 0.999882
0.999874 1 1 0.999874
0.999796 1 1 0.999796
0.999773 1 1 0.999773
0.999844 1 1 0.999844
0.999861 1 1 0.999861
0.999818 1 1 0.999818
0.999806 1 1 0.999806
0.9999 1 1 0.9999
0.999785 1 1 0.999785
0.999819 1 1.00007 0.999752
0.999883 1 1 0.999883
0.999849 1 1 0.999849
0.999825 1 1 0.999825
0.999941 1 1 0.999941
0.999887 1 1 0.999887
0.999847 1 1 0.999847
0.999941 1 1 0.999941
0.999883 1 1 0.999883
0.999825 1 1 0.999825
0.999851 1 1 0.999851
0.999809 1 1 0.999809
0.999819 1 1 0.999819
0.999852 1 1 0.999852
0.999886 1 1 0.999886
0.99994 1 1 0.99994
0.999994 1 1 0.999994
0.999994 1 1 0.999994
1 1 1 1
0.999994 1 1 0.999994
1 1 1 1
1 1 1 1
1 1 1 1
1 1 1 1
1 1 1 1
0.999999 1 1 0.999999
1 1 1 1
1 1 1 1
1 1 1 1
1 1 1 1
1 1 1 1
1 1 1 1
0.999868 1 1 0.999868
0.999825 1 1 0.999825
0.999823 1 1 0.999823
0.999827 1 1 0.999827
0.999833 1 1 0.999833
0.999822 1 1 0.999822
0.999858 1 1 0.999858
0.999834 1 1 0.999834
0.999834 1 1 0.999834
0.999892 1 1 0.999892
0.99981 1 1 0.99981
0.999785 1 1 0.999785
0.999834 1 1 0.999834
0.99987 1 1 0.99987
0.999836 1 1 0.999836
0.999805 1 1 0.999805
0.999887 1 1 0.999887
0.999853 1 1 0.999853
0.99985 1 1 0.99985
0.99983 1 1 0.99983
0.999833 1 1 0.999833
0.999995 1 1 0.999995
0.999931 1 1 0.999931
0.999871 1 1 0.999871
0.99981 1 1 0.99981
0.999997 1 1 0.999997
0.99995 1 1 0.99995
0.999796 1 1 0.999796
0.999878 1 1 0.999878
0.999847 1 1 0.999847
0.999802 1 1 0.999802
0.999802 1 1 0.999802
0.999891 1 1 0.999891
0.999942 1 1 0.999942
0.999873 1 1 0.999873
0.999837 1 1 0.999837
0.999815 1 1 0.999815
0.999802 1 1 0.999802
0.999833 1 1 0.999833
0.99979 1 1 0.99979
0.999841 1 1 0.999841
0.999934 1 1 0.999934
0.999836 1 1 0.999836
0.999828 1 1 0.999828
0.999778 1 1 0.999778
0.999952 1 1 0.999952
0.999948 1 1 0.999948
0.999907 1 1 0.999907
0.999872 1 1 0.999872
0.999837 1 1 0.999837
0.999792 1 1 0.999792
0.999779 1 1 0.999779
0.999814 1 1 0.999814
0.999872 1 1 0.999872
0.999846 1 1 0.999846
0.999882 1 1 0.999882
0.999871 1 1 0.999871
0.999836 1 1 0.999836
0.999839 1 1 0.999839
0.999801 1 1 0.999801
0.999772 1 1 0.999772
0.999844 1 1 0.999844
0.999875 1 1 0.999875
0.999818 1 1 0.999818
0.999801 1 1 0.999801
0.999897 1 1 0.999897
0.999786 1 1 0.999786
0.999823 1 1.00007 0.99975
0.999818 1 1 0.999818
0.999896 1 1 0.999896
0.999801 1 1 0.999801
0.999909 1 1.00015 0.999762
0.999789 1 1 0.999789
1.00044 1 1.00071 0.999727
0.984537 1.00295 0.981895 0.999737
0.999849 1 1 0.999849
0.999825 1 1 0.999825
0.999809 1 1 0.999809
0.999941 1 1 0.999941
0.999883 1 1 0.999883
0.999856 1 1 0.999856
0.999822 1 1 0.999822
0.99994 1 1 0.99994
0.999883 1 1 0.999883
0.999809 1 1 0.999809
0.999852 1 1 0.999852
0.999823 1 1 0.999823
0.999797 1 1 0.999797
0.999824 1 1 0.999824
0.999852 1 1 0.999852
0.999877 1 1 0.999877
0.999931 1 1 0.999931
0.999891 1 1 0.999891
0.999931 1 1 0.999931
0.999994 1 1 0.999994
0.999994 1 1 0.999994
1 1 1 1
0.999994 1 1 0.999994
1 1 1 1
1 1 1 1
1 1 1 1
1 1 1 1
1 1 1 1
1 1 1 1
0.999999 1 1 0.999999
1 1 1 1
1 1 1 1
1 1 1 1
1 1 1 1
1 1 1 1
1 1 1 1
0.999864 1 1 0.999864
0.999819 1 1 0.999819
0.999837 1 1 0.999837
0.999834 1 1 0.999834
0.999836 1 1 0.999836
0.999904 1 1 0.999904
0.999841 1 1 0.999841
0.996145 1.00031 0.995896 0.999944
0.999674 1 0.999705 0.999968
0.999964 1 1 0.999964
0.999807 1 1 0.999807
0.999798 1 1 0.999798
0.99987 1 1 0.99987
0.999848 1 1 0.999848
0.999799 1 1 0.999799
0.999804 1 1 0.999804
0.99989 1 1 0.99989
0.999838 1 1 0.999838
0.999818 1 1 0.999818
0.999797 1 1 0.999797
0.999997 1 1 0.999997
0.999834 1 1 0.999834
0.99995 1 1 0.99995
0.999872 1 1 0.999872
0.999946 1 1 0.999946
0.999783 1 1 0.999783
0.999956 1 1 0.999956
0.999948 1 1 0.999948
0.9999 1 1 0.9999
0.999842 1 1 0.999842
0.99987 1 0.999948 0.999922
0.999828 1 1 0.999828
0.999777 1 1 0.999777
0.999838 1 1 0.999838
0.999877 1 1 0.999877
0.999835 1 1 0.999835
0.999814 1 1 0.999814
0.999785 1 1 0.999785
0.999795 1 1 0.999795
0.999814 1 1.00004 0.999769
0.997848 1 0.997925 0.999923
0.999876 1 1 0.999876
0.999784 1 1 0.999784
0.999805 1 1 0.999805
0.999901 1 1 0.999901
0.999883 1 1 0.999883
0.999862 1 1 0.999862
0.999831 1 1 0.999831
0.999804 1 1 0.999804
0.999767 1 1 0.999767
1.00122 1 1.00145 0.999773
0.999844 1 1 0.999844
0.999817 1 1 0.999817
0.999889 1 1 0.999889
0.999894 1 1 0.999894
0.999787 1 1 0.999787
0.999796 1 1 0.999796
0.999747 1 1 0.999747
0.99982 1 1 0.99982
0.999874 1 0.99997 0.999904
0.9998 1 1 0.9998
0.999795 1 1.00003 0.999762
0.9998 1 1 0.9998
1.00093 1 1.00121 0.999725
0.98883 1.00546 0.983696 0.99976
0.999801 1 1 0.999801
0.999763 1 1 0.999763
0.999782 1 1 0.999782
1.00201 1 1.00228 0.999726
1.00055 1 1.00084 0.999706
0.964001 0.964837 1.00004 0.999094
0.988001 1.00162 0.986562 0.999836
0.98481 1.00805 0.977252 0.999684
0.972429 0.978762 0.993616 0.999914
0.977891 1.00155 0.976392 0.999986
0.999825 1 1 0.999825
0.999809 1 1 0.999809
0.999792 1 1 0.999792
0.99994 1 1 0.99994
0.999881 1 1 0.999881
0.999852 1 1 0.999852