# vtk DataFile Version 2.0
Wound Healing Simulation
ASCII
DATASET UNSTRUCTURED_GRID
POINTS 3012 float
69.9759 18.75 4
67.2507 60.3285 4
69.976 18.75 2
73.0099 25.446 4
71.1327 20.9142 4
68.6801 16.6661 4
67.826 19.9261 3.98352
67.2507 60.3286 2
71.1327 54.0858 4
68.6801 58.3339 4
65.6939 62.2254 4
65.3127 59.0019 3.98401
74.6784 42.3946 4
73.7221 47.2057 4
69.9759 18.75 0
73.0099 25.446 2
68.6801 16.6661 2
71.1327 20.9142 2
67.8264 19.9289 2
74.6792 32.6053 4
73.7222 27.7943 4
72.1454 23.1494 4
70.6146 26.221 3.98356
68.8863 21.9582 3.98421
67.2507 14.6715 4
66.6375 17.9717 3.98309
65.7977 21.0252 3.97515
67.2507 60.3285 0
71.1327 54.0858 2
68.6801 58.3339 2
65.694 62.2255 2
65.3139 58.999 2
72.1454 51.8506 4
69.9759 56.25 4
68.8367 53.1131 3.98314
64.0165 64.0165 4
66.6111 57.1341 3.98347
63.8864 60.7667 3.98608
63.5011 57.7723 3.9767
60.3285 67.2507 4
74.6792 42.3947 2
73.7222 47.2057 2
74.9194 39.9526 4
74.2788 44.8158 4
72.1685 42.0857 3.98218
73.0099 49.554 4
71.2497 46.5983 3.98247
73.0099 25.446 0
71.1327 20.9142 0
68.6801 16.6661 0
67.826 19.9261 0.0164782
74.6792 32.6053 2
73.7222 27.7943 2
67.2508 14.6715 2
72.1455 23.1494 2
70.6147 26.2216 2
66.6383 17.9747 2
68.8866 21.9602 2
65.7972 21.0255 2
74.9197 35.0474 4
74.2794 30.1841 4
72.1851 32.9432 3.98254
71.2786 28.4313 3.98298
69.8161 24.0598 3.98404
68.3477 26.951 3.9737
66.7634 22.9329 3.97476
65.694 12.7746 4
65.3244 16.1027 3.98475
64.7141 19.1951 3.97532
63.8864 22.0359 3.97138
71.1327 54.0858 0
65.6939 62.2254 0
68.6801 58.3339 0
65.3127 59.0019 0.0159934
72.1455 51.8506 2
69.9759 56.25 2
68.837 53.111 2
64.0165 64.0165 2
66.6119 57.1309 2
63.8877 60.7648 2
63.5009 57.7729 2
62.2254 65.694 4
58.8951 65.4145 3.99184
69.7693 50.989 3.98315
67.784 55.1674 3.98315
66.6498 52.2094 3.97338
62.3368 62.428 3.98854
64.6612 56.0317 3.97565
62.2037 59.4054 3.97837
61.8226 56.6807 3.97218
58.3339 68.6801 4
60.3285 67.2508 2
73.7221 47.2057 0
74.6784 42.3946 0
74.9197 39.9526 2
74.2794 44.8159 2
72.1682 42.0857 2
73.0099 49.554 2
71.2497 46.5979 2
75 37.5 4
72.4057 39.8023 3.98229
71.7829 44.353 3.98242
69.8045 41.7898 3.97242
70.5755 48.8137 3.98278
68.9128 46.0152 3.97264
74.6792 32.6053 0
73.7222 27.7943 0
67.2507 14.6715 0
72.1454 23.1494 0
70.6146 26.221 0.0164433
68.8863 21.9582 0.0157944
66.6375 17.9717 0.0169138
65.7977 21.0252 0.0248471
74.9197 35.0474 2
74.2794 30.1841 2
72.1848 32.9434 2
71.2786 28.4317 2
65.694 12.7745 2
65.3256 16.1051 2
69.8162 24.0609 2
68.3476 26.9512 2
64.7137 19.1949 2
66.763 22.9333 2
63.8859 22.0358 2
72.4135 35.2241 3.98227
71.8043 30.6762 3.98274
69.8405 33.2679 3.97291
68.9669 29.0377 3.97337
67.6121 24.9116 3.97405
66.1946 27.6341 3.96994
64.0165 10.9835 4
64.7565 23.8299 3.97088
63.8909 14.3262 3.98703
63.5143 17.4461 3.97763
62.9054 20.3222 3.9704
62.0904 22.9448 3.96949
60.6845 11.0971 3.98935
57.6126 11.4463 3.98258
72.1454 51.8506 0
69.9759 56.25 0
68.8367 53.1131 0.0168575
64.0165 64.0165 0
63.8864 60.7667 0.0139244
66.6111 57.1341 0.0165331
63.5011 57.7723 0.0232959
62.2255 65.694 2
58.8958 65.4142 2
69.7694 50.9878 2
67.7845 55.1645 2
66.6494 52.2089 2
62.338 62.4269 2
64.6609 56.0319 2
62.2036 59.4065 2
61.8223 56.6817 2
60.6694 63.9775 3.99037
57.0259 66.7352 3.99247
57.5586 63.6931 3.985
67.508 50.1771 3.97294
65.7022 54.1734 3.97419
64.5366 51.3849 3.96935
60.7738 60.9392 3.98082
62.8189 55.0669 3.97121
60.6582 58.1597 3.97325
60.3252 55.783 3.97134
56.25 69.9759 4
58.3339 68.6801 2
60.3285 67.2507 0
58.9216 9.65545 3.99029
62.2254 9.30607 4
73.0099 49.554 0
74.2788 44.8158 0
71.2497 46.5983 0.0175348
72.1685 42.0857 0.0178205
74.9194 39.9526 0
75 37.5 2
72.4056 39.8024 2
71.7828 44.3527 2
69.8042 41.7895 2
70.5756 48.8131 2
68.9128 46.0148 2
72.489 37.512 3.98205
70.0415 39.6573 3.97228
69.4309 43.9078 3.9726
67.5972 41.4974 3.96926
68.2664 48.1075 3.97266
66.7096 45.4399 3.96911
74.9197 35.0474 0
74.2794 30.1841 0
72.1851 32.9432 0.0174585
71.2786 28.4313 0.0170167
65.694 12.7746 0
65.3244 16.1027 0.0152453
69.8161 24.0598 0.0159562
68.3477 26.951 0.0262994
66.7634 22.9329 0.0252418
64.7141 19.1951 0.02468
63.8864 22.0359 0.0286199
72.4134 35.2241 2
71.8042 30.6765 2
69.8402 33.2682 2
68.9669 29.0379 2
64.0165 10.9835 2
63.8921 14.3279 2
63.5141 17.4454 2
67.6119 24.912 2
66.1945 27.6341 2
62.9051 20.3217 2
64.7561 23.8299 2
62.09 22.9448 2
60.6855 11.0981 2
57.6127 11.4455 2
70.0581 35.3916 3.97239
69.4676 31.149 3.97295
67.6554 33.5905 3.96956
66.7722 29.6223 3.96959
65.5239 25.6989 3.97029
64.1452 28.2557 3.96956
62.3423 12.6543 3.98836
62.8553 24.6381 3.96963
62.2003 15.7832 3.98035
61.813 18.6856 3.97183
61.2128 21.3452 3.9682
60.4204 23.7307 3.96893
59.2467 12.7777 3.98128
55.8745 10.2327 3.98425
56.4052 13.1135 3.979
69.7693 50.989 0.0168522
62.2254 65.694 0
58.8951 65.4145 0.00816404
67.784 55.1674 0.0168548
66.6498 52.2094 0.0266208
62.3368 62.428 0.0114629
62.2037 59.4054 0.0216265
64.6612 56.0317 0.0243462
61.8226 56.6807 0.0278198
60.6704 63.9768 2
57.0265 66.7352 2
57.5588 63.6943 2
67.5078 50.1766 2
65.7018 54.1731 2
64.5363 51.3849 2
60.7739 60.9405 2
62.8187 55.0676 2
60.6581 58.1609 2
60.3252 55.7835 2
55.0715 67.9322 3.99275
59.2199 62.3675 3.98214
55.8055 64.9111 3.98752
56.3273 62.0915 3.98079
65.3313 49.4083 3.96902
63.7046 53.2914 3.96974
62.4387 50.6502 3.96802
59.3336 59.558 3.97736
61.0727 54.3057 3.9695
59.2873 57.0092 3.97087
59.2375 55.1774 3.97412
48.1036 68.579 3.98866
50.9491 69.9318 3.99295
54.0858 71.1327 4
56.25 69.976 2
58.3339 68.6801 0
57.059 8.33551 3.99094
60.3285 7.74928 4
58.9226 9.65604 2
62.2255 9.30602 2
70.5755 48.8137 0.0172168
71.7829 44.353 0.0175814
68.9128 46.0152 0.0273619
69.8045 41.7898 0.0275841
72.4057 39.8023 0.0177101
75 37.5 0
72.4887 37.5121 2
70.0414 39.6572 2
69.4308 43.9075 2
67.5969 41.4973 2
68.2664 48.1071 2
66.7096 45.4398 2
70.1295 37.5213 3.9723
67.8343 39.5121 3.96929
67.2236 43.4698 3.9692
65.547 41.2089 3.9699
66.0683 47.418 3.96901
64.6481 44.8472 3.96912
72.4135 35.2241 0.0177262
71.8043 30.6762 0.0172607
69.8405 33.2679 0.0270947
68.9669 29.0377 0.0266287
64.0165 10.9835 0
63.8909 14.3262 0.0129743
63.5143 17.4461 0.0223693
67.6121 24.9116 0.0259479
66.1946 27.6341 0.0300613
64.7565 23.8299 0.0291167
62.9054 20.3222 0.0296046
62.0904 22.9448 0.0305062
60.6845 11.0971 0.0106525
57.6126 11.4463 0.0174237
70.0581 35.3918 2
69.4676 31.1492 2
67.6551 33.5906 2
66.7722 29.6223 2
62.3434 12.6556 2
62.2002 15.7823 2
61.8128 18.6846 2
65.5237 25.6989 2
64.1451 28.2557 2
61.2127 21.3449 2
62.855 24.6381 2
60.4205 23.7309 2
59.2468 12.7771 2
56.4051 13.1125 2
55.8746 10.2318 2
67.8702 35.5472 3.96934
67.2651 31.6219 3.96949
65.6931 33.9272 3.97003
64.6605 30.1923 3.96931
63.5367 26.4147 3.96954
62.2478 28.7799 3.97168
60.7762 14.2221 3.98119
61.0394 25.3405 3.97013
60.6132 17.1272 3.97657
60.2179 19.8209 3.96792
59.6517 22.2633 3.96745
58.967 24.3258 3.97033
54.0376 9.13557 3.98538
57.9106 14.3317 3.97956
54.7867 12.0125 3.98036
55.312 14.6481 3.97766
67.508 50.1771 0.0270575
57.0259 66.7352 0.00752945
60.6694 63.9775 0.00962655
57.5586 63.6931 0.015002
65.7022 54.1734 0.0258052
64.5366 51.3849 0.0306533
60.7738 60.9392 0.0191844
60.6582 58.1597 0.0267464
62.8189 55.0669 0.0287949
60.3252 55.783 0.028661
55.0719 67.9322 2
59.22 62.3686 2
55.8055 64.9121 2
56.3273 62.0928 2
65.331 49.4082 2
63.7042 53.2916 2
62.4387 50.6501 2
59.3336 59.5593 2
61.0728 54.3061 2
59.2874 57.0095 2
59.2376 55.1775 2
53.0433 69 3.99287
53.968 66.0136 3.9883
57.8809 60.8711 3.97913
54.6844 63.2091 3.98332
55.2112 60.6169 3.97868
63.1888 48.6594 3.96831
61.7373 52.5725 3.96812
60.2565 50.0129 3.96819
58.0171 58.2603 3.97326
59.3195 53.9408 3.96889
58.1217 55.8031 3.96816
50.1103 67.857 3.98864
47.4638 66.5817 3.98604
46.0571 69.1583 3.98867
48.1035 68.5795 2
48.8032 70.7231 3.99303
50.9495 69.9319 2
51.8506 72.1454 4
54.0858 71.1327 2
56.25 69.9759 0
55.1035 7.14014 3.99142
58.3339 6.31992 4
57.0597 8.33579 2
60.3286 7.74926 2
58.9216 9.65545 0.0097064
62.2254 9.30607 0
68.2664 48.1075 0.0273409
69.4309 43.9078 0.0274046
66.7096 45.4399 0.0308871
67.5972 41.4974 0.030742
70.0415 39.6573 0.0277176
72.489 37.512 0.0179515
70.1293 37.5213 2
67.8342 39.512 2
67.2234 43.4697 2
65.5467 41.2088 2
66.0683 47.4179 2
64.6479 44.8471 2
67.9305 37.5217 3.96925
65.7777 39.3696 3.9701
65.1711 43.0243 3.96951
63.7232 40.9278 3.97227
63.9583 46.7151 3.96864
62.7891 44.2133 3.97215
70.0581 35.3916 0.0276051
69.4676 31.149 0.0270499
67.6554 33.5905 0.0304387
66.7722 29.6223 0.0304062
62.3423 12.6543 0.0116429
62.2003 15.7832 0.0196521
61.813 18.6856 0.0281679
65.5239 25.6989 0.0297148
64.1452 28.2557 0.0304378
62.8553 24.6381 0.0303703
61.2128 21.3452 0.0318007
60.4204 23.7307 0.0310728
59.2467 12.7777 0.0187198
56.4052 13.1135 0.0210009
55.8745 10.2327 0.0157546
67.8701 35.5472 2
67.2651 31.6219 2
65.693 33.9272 2
64.6603 30.1922 2
60.7761 14.2213 2
60.613 17.1259 2
60.218 19.8199 2
63.5365 26.4147 2
62.2474 28.78 2
59.652 22.2635 2
61.0393 25.3407 2
58.9667 24.3262 2
57.9102 14.3308 2
55.3115 14.6473 2
54.0377 9.13484 2
54.7866 12.0114 2
65.8675 35.6666 3.96992
65.1793 32.1545 3.96958
64.2628 34.25 3.97183
62.5719 30.6378 3.97184
61.6397 27.0751 3.97053
60.8257 29.1438 3.9747
59.3112 15.6681 3.97888
59.3104 25.8023 3.97273
59.1214 18.3576 3.97319
58.7296 20.8616 3.96542
58.2717 23.0989 3.96683
57.9464 24.6718 3.97185
52.1123 8.15373 3.98629
53.058 11.018 3.98174
56.6761 15.7434 3.97879
53.8089 13.6831 3.9783
54.375 16.0022 3.97799
55.0715 67.9322 0.00725164
65.3313 49.4083 0.0309835
55.8055 64.9111 0.0124824
59.2199 62.3675 0.0178589
56.3273 62.0915 0.0192109
63.7046 53.2914 0.0302616
62.4387 50.6502 0.0319816
59.3336 59.558 0.0226431
59.2873 57.0092 0.0291345
61.0727 54.3057 0.0304953
59.2375 55.1774 0.0258785
53.0437 69.0001 2
53.9679 66.0143 2
57.8807 60.8722 2
54.6844 63.2103 2
55.2111 60.6183 2
63.1887 48.6593 2
61.737 52.5725 2
60.2565 50.0127 2
58.017 58.2618 2
59.3198 53.9407 2
58.1218 55.803 2
52.0715 67.0001 3.98857
52.9541 64.2201 3.98516
56.6477 59.4886 3.97686
[...]
POINT_DATA 3012
SCALARS Jp_lamdaP float 4
LOOKUP_TABLE default
0.999957 1 1 0.999957
1 1 1 1
0.99996 1 1 0.99996
0.99993 1 1 0.99993
0.999953 1 1 0.999953
0.999965 1 1 0.999965
0.999664 1 1 0.999664
1 1 1 1
1 1 1 1
1 1 1 1
0.999999 1 1 0.999999
0.999825 1 1 0.999825
0.999892 1 1 0.999892
0.999924 1 1 0.999924
0.999961 1 1 0.999961
0.999937 1 1 0.999937
0.999969 1 1 0.999969
0.999957 1 1 0.999957
0.999668 1 1 0.999668
1 1 1 1
0.999919 1 1 0.999919
0.999943 1 1 0.999943
0.999549 1 1 0.999549
0.999629 1 1 0.999629
0.999983 1 1 0.999983
0.999714 1 1 0.999714
0.999186 1 1 0.999186
1 1 1 1
0.99997 1 1 0.99997
0.999983 1 1 0.999983
1 1 1 1
0.999833 1 1 0.999833
0.999936 1 1 0.999936
0.999958 1 1 0.999958
0.999707 1 1 0.999707
1 1 1 1
0.999796 1 1 0.999796
0.999881 1 1 0.999881
0.999282 1 1 0.999282
1 1 1 1
1 1 1 1
0.99996 1 1 0.99996
1 1 1 1
0.999913 1 1 0.999913
0.999497 1 1 0.999497
1 1 1 1
0.999635 1 1 0.999635
0.999943 1 1 0.999943
0.999959 1 1 0.999959
0.999972 1 1 0.999972
0.999672 1 1 0.999672
0.999946 1 1 0.999946
0.999926 1 1 0.999926
0.999987 1 1 0.999987
0.999949 1 1 0.999949
0.99955 1 1 0.99955
0.999718 1 1 0.999718
0.999632 1 1 0.999632
0.999172 1 1 0.999172
1 1 1 1
0.999905 1 1 0.999905
0.999584 1 1 0.999584
0.999524 1 1 0.999524
0.999587 1 1 0.999587
0.99891 1 1 0.99891
0.999044 1 1 0.999044
0.999998 1 1 0.999998
0.999804 1 1 0.999804
0.999299 1 1 0.999299
0.998688 1 1 0.998688
1 1 1 1
1 1 1 1
1 1 1 1
0.99984 1 1 0.99984
1 1 1 1
1 1 1 1
0.999683 1 1 0.999683
1 1 1 1
0.999787 1 1 0.999787
0.999896 1 1 0.999896
0.999281 1 1 0.999281
1 1 1 1
0.999998 1 1 0.999998
0.999636 1 1 0.999636
0.999721 1 1 0.999721
0.998926 1 1 0.998926
0.999942 1 1 0.999942
0.999201 1 1 0.999201
0.999365 1 1 0.999365
0.998936 1 1 0.998936
1 1 1 1
1 1 1 1
1 1 1 1
1 1 1 1
1 1 1 1
0.999953 1 1 0.999953
0.99954 1 1 0.99954
0.999964 1 1 0.999964
0.99962 1 1 0.99962
1 1 1 1
0.999467 1 1 0.999467
0.999604 1 1 0.999604
0.998611 1 1 0.998611
0.999659 1 1 0.999659
0.998719 1 1 0.998719
0.999903 1 1 0.999903
0.999933 1 1 0.999933
0.999991 1 1 0.999991
0.999953 1 1 0.999953
0.999552 1 1 0.999552
0.999636 1 1 0.999636
0.999722 1 1 0.999722
0.999157 1 1 0.999157
1 1 1 1
0.999913 1 1 0.999913
0.999491 1 1 0.999491
0.999524 1 1 0.999524
0.999999 1 1 0.999999
0.999836 1 1 0.999836
0.99959 1 1 0.99959
0.998881 1 1 0.998881
0.99928 1 1 0.99928
0.999064 1 1 0.999064
0.99869 1 1 0.99869
0.999485 1 1 0.999485
0.999499 1 1 0.999499
0.998712 1 1 0.998712
0.998817 1 1 0.998817
0.998936 1 1 0.998936
0.998495 1.00005 1 0.998447
1 1 1 1
0.998609 1 1 0.998609
0.999932 1 1 0.999932
0.99936 1 1 0.99936
0.998773 1 1 0.998773
0.998817 1.00033 1 0.998487
0.999983 1 1 0.999983
0.999623 1 1 0.999623
1 1 1 1
1 1 1 1
0.99969 1 1 0.99969
1 1 1 1
0.99991 1 1 0.99991
0.999791 1 1 0.999791
0.999279 1 1 0.999279
1 1 1 1
0.999999 1 1 0.999999
0.999661 1 1 0.999661
0.999745 1 1 0.999745
0.998928 1 1 0.998928
0.999955 1 1 0.999955
0.999203 1 1 0.999203
0.999365 1 1 0.999365
0.998924 1 1 0.998924
0.999982 1 1 0.999982
1 1 1 1
0.999706 1 1 0.999706
0.998821 1 1 0.998821
0.99907 1 1 0.99907
0.998801 1.00028 1 0.998517
0.999473 1 1 0.999473
0.998837 1 1 0.998837
0.999055 1 1.00006 0.998999
0.998801 1 1 0.998801
1 1 1 1
1 1 1 1
1 1 1 1
0.999995 1 1 0.999995
1 1 1 1
1 1 1 1
1 1 1 1
0.999601 1 1 0.999601
0.999516 1 1 0.999516
1 1 1 1
1 1 1 1
0.999469 1 1 0.999469
0.999588 1 1 0.999588
0.998612 1 1 0.998612
0.999622 1 1 0.999622
0.998719 1 1 0.998719
0.999456 1 1 0.999456
0.998551 1 1 0.998551
0.998676 1 1 0.998676
1.00024 1.002 1 0.998236
0.998759 1 1 0.998759
0.999265 1.00092 1 0.998344
1 1 1 1
0.999921 1 1 0.999921
0.999393 1 1 0.999393
0.999525 1 1 0.999525
1 1 1 1
0.999869 1 1 0.999869
0.999593 1 1 0.999593
0.998852 1 1 0.998852
0.999084 1 1 0.999084
0.999262 1 1 0.999262
0.998692 1 1 0.998692
0.999482 1 1 0.999482
0.999499 1 1 0.999499
0.998653 1 1 0.998653
0.998839 1 1 0.998839
1 1 1 1
0.999921 1 1 0.999921
0.999385 1 1 0.999385
0.998937 1 1 0.998937
0.998508 1.00009 1 0.998414
0.998769 1 1 0.998769
0.998627 1 1 0.998627
0.998843 1.00035 1 0.99849
0.999977 1 1 0.999977
0.999623 1 1 0.999623
0.998565 1 1 0.998565
0.998773 1 1 0.998773
0.999466 1.00115 1 0.998313
0.998559 1.00023 1 0.998332
0.99854 1 1 0.998539
1.00067 1.00238 1 0.998292
0.999963 1 1 0.999963
0.999017 1.00059 1 0.998428
0.999438 1 1 0.999438
0.998921 1 1 0.998921
0.998747 1.00018 1 0.998567
1.00026 1.00182 1 0.998434
0.999532 1 1 0.999532
0.999731 1 1 0.999731
0.999241 1 1 0.999241
0.99965 1 1 0.99965
1 1 1 1
1 1 1 1
0.999744 1 1 0.999744
0.998931 1 1 0.998931
0.999968 1 1 0.999968
0.999365 1 1 0.999365
0.999205 1 1 0.999205
0.998911 1 1 0.998911
0.999988 1 1 0.999988
1 1 1 1
0.999707 1 1 0.999707
0.998822 1 1 0.998822
0.999074 1 1 0.999074
0.998699 1.00018 1 0.998516
0.999474 1 1 0.999474
0.998847 1 1 0.998847
0.998998 1 1 0.998996
0.99879 1 1 0.99879
1 1 1 1
0.999582 1 1 0.999582
0.999825 1 1 0.999825
0.999334 1 1 0.999334
0.999278 1.00086 1 0.998421
0.998686 1 1 0.998686
1.00147 1.00315 1 0.998323
0.999123 1 1 0.999119
0.999041 1.00035 1 0.998696
0.999647 1 1.00088 0.998768
0.998686 1 1 0.998686
0.999957 1 1 0.999957
1 1 1 1
1 1 1 1
1 1 1 1
1 1 1 1
0.999999 1 1 0.999999
1 1 1 1
0.999992 1 1 0.999992
1 1 1 1
0.999624 1 1 0.999624
0.999566 1 1 0.999566
0.99872 1 1 0.99872
0.998612 1 1 0.998612
0.999471 1 1 0.999471
1 1 1 1
0.999455 1 1 0.999455
0.998552 1 1 0.998552
0.998676 1 1 0.998676
1.00006 1.00183 1 0.998235
0.998759 1 1 0.998759
0.999318 1.00098 1 0.998344
0.998537 1 1 0.998537
1.00052 1.00235 1 0.998177
0.999642 1.00135 1 0.998297
1.00621 1.00807 1 0.998156
0.999402 1.00103 1 0.998378
1.00377 1.00555 1 0.998237
0.999479 1 1 0.999479
0.9995 1 1 0.9995
0.998594 1 1 0.998594
0.998861 1 1 0.998861
1 1 1 1
0.999909 1 1 0.999909
0.99941 1 1 0.99941
0.998938 1 1 0.998938
0.998516 1.00014 1 0.99838
0.998646 1 1 0.998646
0.998765 1 1 0.998765
0.998854 1.00036 1 0.998494
0.999972 1 1 0.999972
0.999623 1 1 0.999623
0.998546 1 1 0.998546
0.998772 1 1 0.998772
0.999619 1.00132 1 0.998301
0.998681 1.00031 1 0.998367
0.999955 1 1 0.999955
0.999437 1 1 0.999437
0.998949 1 1 0.998949
0.998542 1 1 0.998539
1.00101 1.00273 1 0.998286
0.998699 1.00016 1 0.998539
0.999302 1.00088 1 0.998429
1.00051 1.00208 1 0.998434
0.999534 1 1 0.999534
0.99924 1 1 0.99924
0.999729 1 1 0.999729
0.999945 1.0017 1 0.99825
0.999558 1.00122 1 0.998337
1.00548 1.00734 1 0.998154
1.00211 1.0039 1 0.998218
0.999962 1.00161 1 0.998359
1.00594 1.00765 1 0.998307
0.999486 1 1 0.999486
1.00198 1.00359 1 0.998398
0.999117 1 1 0.999117
0.998655 1 1 0.998655
0.998874 1.00047 1 0.998409
1.00408 1.00559 1 0.998495
0.999814 1 1 0.999814
0.999223 1 1 0.999223
0.999294 1 1 0.999294
0.999104 1 1 0.999104
0.998822 1 1 0.998822
1 1 1 1
0.999993 1 1 0.999993
0.999709 1 1 0.999709
0.999078 1 1 0.999078
0.998602 1.00009 1 0.998516
0.999475 1 1 0.999475
0.998994 1 1 0.998994
0.998857 1 1 0.998857
0.998779 1 1 0.998779
1 1 1 1
0.999582 1 1 0.999582
0.999829 1 1 0.999829
0.999332 1 1 0.999332
0.999107 1.00069 1 0.998418
0.998691 1 1 0.998689
1.00107 1.00275 1 0.998322
0.99915 1 1.00003 0.999121
0.998902 1.00019 1 0.998708
0.999611 1 1.00085 0.998759
0.998742 1 1 0.998742
1 1 1 1
0.999896 1 1 0.999896
0.999234 1 1 0.999234
0.99945 1 1 0.99945
0.999125 1 1 0.999125
1.00227 1.00402 1 0.998259
1.00004 1.00154 1 0.998501
1.00354 1.00527 1 0.99827
1.00004 1 1.00119 0.998858
0.998881 1.00026 1 0.998625
0.999293 1 1.00075 0.998541
0.999946 1 1 0.999946
0.999697 1 1 0.999697
0.999964 1 1 0.999964
0.999959 1 1 0.999959
1 1 1 1
1 1 1 1
1 1 1 1
1 1 1 1
1 1 1 1
1 1 1 1
1 1 1 1
0.999998 1 1 0.999998
1 1 1 1
0.999989 1 1 0.999989
1 1 1 1
0.998759 1 1 0.998759
0.998676 1 1 0.998676
0.999367 1.00102 1 0.998344
0.999873 1.00164 1 0.998234
0.998552 1 1 0.998552
0.999455 1 1 0.999455
0.998537 1 1 0.998537
1.00046 1.00229 1 0.998177
0.999467 1.00117 1 0.998297
1.00634 1.0082 1 0.998155
0.999408 1.00103 1 0.998376
1.0033 1.00507 1 0.998237
1.00045 1.00229 1 0.998161
1.00817 1.01008 1 0.998109
1.00491 1.00672 1 0.998196
1.01201 1.01385 1 0.998185
1.00276 1.00451 1 0.998254
1.00844 1.01014 1 0.998315
0.998528 1 1 0.998528
0.998771 1 1 0.998771
0.999754 1.00147 1 0.998289
0.998805 1.0004 1 0.998402
0.999947 1 1 0.999947
0.999436 1 1 0.999436
0.998978 1 1 0.998978
0.998545 1 1 0.99854
1.00137 1.0031 1 0.99828
0.99958 1.00115 1 0.99843
0.998653 1.00014 1 0.998511
1.00082 1.00239 1 0.998434
0.999536 1 1 0.999536
0.999238 1 1 0.999238
0.999727 1 1 0.999727
1.00011 1.00189 1 0.99822
0.999511 1.00118 1 0.998336
1.00554 1.00741 1 0.998146
1.0027 1.00449 1 0.998224
0.999487 1 1 0.999487
0.999113 1 1 0.999113
0.998723 1 1.00003 0.998691
1.0002 1.00184 1 0.998369
1.00558 1.00728 1 0.99832
0.99905 1.00066 1 0.998388
1.00209 1.0037 1 0.9984
1.00365 1.00515 1 0.998507
0.999226 1 1 0.999226
0.999088 1 1 0.999088
0.99981 1 1 0.99981
0.999309 1 1 0.999309
1.00652 1.00844 1 0.998097
1.00505 1.00687 1 0.998188
1.01245 1.01435 1 0.998126
1.00782 1.00958 1 0.998249
1.00429 1.00593 1 0.998367
1.00932 1.01096 1 0.998376
0.999202 1 1 0.999202
1.00534 1.00683 1 0.998517
0.99889 1 1 0.99889
0.999144 1.00051 1.00018 0.998454
1.00177 1.00346 1 0.998325
1.00588 1.00738 1 0.998515
0.999859 1 1 0.999859
0.999395 1 1 0.999395
0.999094 1 1 0.999094
0.999125 1 1 0.999125
0.999041 1 1 0.999041
1 1 1 1
0.998917 1.0005 1 0.998416
0.999833 1 1 0.999833
0.999582 1 1 0.999582
0.99933 1 1 0.99933
0.998691 1 1 0.998691
1.00066 1.00235 1 0.998321
0.999124 1 1 0.999124
0.999635 1 1.00089 0.99875
0.998721 1 1 0.998721
0.998798 1 1 0.998798
1 1 1 1
0.999901 1 1 0.999901
0.999234 1 1 0.999234
0.99945 1 1 0.99945
0.999109 1 1 0.999109
1.00241 1.00416 1 0.998256
0.999595 1.0011 1 0.998502
1.00362 1.00536 1 0.998263
0.999934 1 1.00107 0.998861
0.998918 1.00028 1 0.998637
0.999452 1 1.00089 0.998559
0.999928 1 1 0.999928
0.999555 1 1 0.999555
0.999288 1 1.00029 0.998996
0.999217 1 1 0.999217
0.999059 1 1.00006 0.998995
1.00586 1.00762 1 0.998246
1.00088 1.00245 1 0.998432
1.00418 1.00581 1 0.998386
1.0021 1 1.00346 0.99865
0.998533 1.0001 1 0.998429
0.999949 1 1 0.999949
0.999639 1 1 0.999639
0.99968 1 1 0.99968
0.999521 1 1 0.999521
0.999704 1 1 0.999704
0.999967 1 1 0.999967
0.999965 1 1 0.999965
1 1 1 1
0.999961 1 1 0.999961
1 1 1 1
1 1 1 1
1 1 1 1
1 1 1 1
1 1 1 1
1 1 1 1
1 1 1 1
1 1 1 1
1 1 1 1
0.999997 1 1 0.999997
1 1 1 1
0.999439 1.00107 1 0.998375
0.999287 1.00099 1 0.998297
1.00283 1.0046 1 0.998237
1.00645 1.00831 1 0.998154
1.00041 1.00224 1 0.998177
0.998537 1 1 0.998537
1.00049 1.00233 1 0.998162
1.00826 1.01018 1 0.998101
1.00465 1.00646 1 0.998197
1.01194 1.01377 1 0.998193
1.00294 1.00469 1 0.998251
1.00847 1.01016 1 0.99832
1.00761 1.00955 1 0.998077
1.01398 1.01588 1 0.998129
1.00981 1.01157 1 0.998257
1.01206 1.01385 1 0.998232
1.00784 1.00956 1 0.998297
1.01081 1.01244 1 0.998398
1.00029 1.0021 1 0.998191
0.999463 1.00113 1 0.998336
1.00561 1.00748 1 0.998139
1.00329 1.00507 1 0.99823
0.999488 1 1 0.999488
0.999108 1 1 0.999108
0.998908 1 1.00018 0.998727
1.00046 1.00209 1 0.998379
1.00521 1.00689 1 0.998333
1.00216 1.00377 1 0.998401
0.999216 1.00085 1 0.998367
1.00325 1.00474 1 0.998518
0.999229 1 1 0.999229
0.999072 1 1 0.999072
0.999807 1 1 0.999807
0.999323 1 1 0.999323
1.00657 1.00849 1 0.998098
1.00517 1.007 1 0.998185
1.01214 1.01404 1 0.998132
1.00727 1.00904 1 0.998246
0.9992 1 1 0.9992
0.998952 1 1.00003 0.998921
0.999271 1.00043 1.00039 0.998449
1.00408 1.00573 1 0.998357
1.00927 1.01087 1 0.998411
1.00193 1.00362 1 0.998315
1.0052 1.00669 1 0.998519
1.00598 1.00745 1 0.998546
0.999094 1 1 0.999094
0.999037 1 1 0.999037
0.999122 1 1 0.999122
0.999833 1 1 0.999833
0.999408 1 1 0.999408
1.01371 1.01564 1 0.998103
1.01182 1.0137 1 0.99815
1.0103 1.01199 1 0.998337
1.00789 1.00944 1 0.998464
0.999065 1 1 0.999065
1.00753 1.00893 1 0.998608
0.999024 1 1.00029 0.998737
1.00033 1.00159 1.00051 0.998233
1.00475 1.0065 1 0.998263
0.999846 1 1 0.999846
0.999524 1 1 0.999524
0.999229 1 1 0.999229
0.999056 1 1 0.999056
0.998991 1 1 0.998991
0.998992 1 1 0.998992
1 1 1 1
0.999906 1 1 0.999906
1.00255 1.0043 1 0.998252
0.99945 1 1 0.99945
0.999234 1 1 0.999234
0.999093 1 1 0.999093
0.999221 1.00072 1 0.998503
1.00358 1.00534 1 0.998257
0.999866 1 1.001 0.998864
0.999319 1 1.00074 0.998577
0.999018 1.00037 1 0.998649
0.999933 1 1 0.999933
0.999557 1 1 0.999557
0.999247 1 1.00024 0.999005
0.999216 1 1 0.999216
0.999047 1 1.00007 0.998981
1.00588 1.00765 1 0.998242
1.00069 1.00227 1 0.998425
1.00416 1.00577 1 0.998405
1.00152 1 1.00289 0.998635
0.998615 1.00016 1.00006 0.998399
0.999626 1 1 0.999626
0.999291 1 1 0.999291
1.00058 1 1.00174 0.998844
0.99912 1 1.00011 0.999007
0.999047 1 1.00016 0.998888
1.00921 1.01072 1 0.998506
1.0009 1.00257 1 0.998343
1.00438 1.00596 1 0.998428
1.00277 1 1.00426 0.998512
0.998372 1.00018 1 0.998196
0.999952 1 1 0.999952
0.999653 1 1 0.999653
0.999436 1 1 0.999436
0.999664 1 1 0.999664
0.999704 1 1 0.999704
0.999497 1 1 0.999497
0.999372 1 1 0.999372
0.999487 1 1 0.999487
0.999709 1 1 0.999709
0.999965 1 1 0.999965
0.999967 1 1 0.999967
1 1 1 1
0.999967 1 1 0.999967
1 1 1 1
1 1 1 1
1 1 1 1
1 1 1 1
1 1 1 1
1 1 1 1
1 1 1 1
1 1 1 1
1 1 1 1
1 1 1 1
1 1 1 1
1.00309 1.00485 1 0.998248
1.00439 1.00621 1 0.998197
1.00849 1.01019 1 0.998324
1.01188 1.0137 1 0.998201
1.00834 1.01026 1 0.998094
1.00053 1.00237 1 0.998162
1.00766 1.00961 1 0.998071
1.01404 1.01594 1 0.998127
1.01013 1.01191 1 0.998243
1.01231 1.0141 1 0.998233
1.00722 1.00894 1 0.998297
1.01082 1.01242 1 0.998421
1.01327 1.0152 1 0.998097
1.0138 1.01563 1 0.9982
1.01255 1.01425 1 0.998329
1.01064 1.01217 1 0.998492
1.0066 1.00852 1 0.998099
1.00527 1.0071 1 0.998182
1.01184 1.01373 1 0.998137
1.00672 1.0085 1 0.998242
0.999198 1 1 0.999198
0.998952 1 1 0.998952
0.999393 1.00037 1.00058 0.998445
1.00385 1.00551 1 0.998347
1.00923 1.0108 1 0.998445
1.00513 1.00662 1 0.99852
1.00202 1.00372 1 0.998305
1.00595 1.00738 1 0.998576
0.999095 1 1 0.999095
0.999033 1 1 0.999033
0.999119 1 1 0.999119
0.999807 1 1 0.999807
0.99942 1 1 0.99942
1.01339 1.01531 1 0.998106
1.01168 1.01355 1 0.998157
1.01013 1.01181 1 0.998339
0.999061 1 1 0.999061
0.999025 1 1.00026 0.998768
1.00057 1.00159 1.00076 0.998226
1.00809 1.00965 1 0.998454
1.00475 1.00646 1 0.998307
1.00694 1.00835 1 0.998603
0.999849 1 1 0.999849
0.999053 1 1 0.999053
0.999011 1 1 0.999011
0.999003 1 1.00002 0.998984
0.999237 1 1 0.999237
0.999504 1 1 0.999504
1.01378 1.01568 1 0.998134
1.01228 1.01408 0.999989 0.998236
1.01016 1.01177 1 0.998415
1.0102 1.01163 1 0.998585
0.998976 1 1 0.998976
1.00481 1.0064 1 0.998413
1.00008 1 1.00165 0.998436
1.00149 1.00235 1.00104 0.998099
0.999885 1 1 0.999885
0.99959 1 1 0.99959
0.999317 1 1 0.999317
0.999037 1 1 0.999037
0.998986 1 1 0.998986
0.998953 1 1.00004 0.998918
0.999937 1 1 0.999937
0.999558 1 1 0.999558
1.00599 1.00776 1 0.998239
0.999215 1 1 0.999215
0.999105 1 1.00009 0.999013
0.99906 1 1.00009 0.998967
1.00047 1.00205 1 0.998419
1.00425 1.00584 1 0.998424
1.00097 1 1.00235 0.998621
0.998837 1.0002 1.00027 0.998369
0.999627 1 1 0.999627
0.9993 1 1 0.9993
1.00055 1 1.00169 0.998861
0.999159 1 1.00015 0.999012
0.998989 1 1.00008 0.998909
1.00932 1.01082 1 0.998518
1.00094 1.00261 1 0.998341
1.00451 1.00602 1 0.998504
1.00302 1 1.00453 0.998495
0.998349 1.00016 1.00003 0.998164
0.999388 1 1 0.999388
0.999072 1 1 0.999072
1.00245 1 1.00372 0.998729
0.998973 1 1.00016 0.998809
1.01595 1.01741 0.999954 0.998605
1.00968 1.01121 0.999872 0.998615
1.00233 1.00417 1 0.99817
1.00254 1.0001 1.00426 0.998187
0.999666 1 1 0.999666
0.999447 1 1 0.999447
0.999313 1 1 0.999313
0.999704 1 1 0.999704
0.999472 1 1 0.999472
0.999709 1 1 0.999709
0.999354 1 1 0.999354
0.999496 1 1 0.999496
0.99925 1 1 0.99925
0.99935 1 1 0.99935
0.999489 1 1 0.999489
0.999706 1 1 0.999706
0.999961 1 1 0.999961
0.999964 1 1 0.999964
1 1 1 1
0.999967 1 1 0.999967
1 1 1 1
1 1 1 1
1 1 1 1
1 1 1 1
1 1 1 1
1 1 1 1
1 1 1 1
1 1 1 1
1 1 1 1
1 1 1 1
1 1 1 1
1.00661 1.00833 1 0.998298
1.01046 1.01225 1 0.998229
1.01083 1.0124 1 0.998443
1.01254 1.01433 1 0.998234
1.01409 1.01599 1 0.998125
1.00772 1.00968 1 0.998065
1.01324 1.01517 1 0.998102
1.0132 1.01503 1 0.998198
1.01229 1.01398 1 0.998333
1.01159 1.01312 1 0.998488
1.01408 1.01594 1 0.998163
1.01574 1.01744 1 0.998328
1.01512 1.01674 0.999946 0.998454
1.01306 1.01498 1 0.998109
1.01155 1.01341 1 0.998164
1.00991 1.01159 1 0.998341
0.999058 1 1 0.999058
0.998978 1 1.00018 0.9988
1.00067 1.00161 1.00085 0.998219
1.00818 1.00975 1 0.998445
1.00653 1.00794 1 0.998599
1.00497 1.00663 1 0.998351
0.999051 1 1 0.999051
0.999031 1 1 0.999031
0.998977 1 1 0.998977
0.999852 1 1 0.999852
0.999246 1 1 0.999246
0.999484 1 1 0.999484
1.0143 1.01619 1 0.998137
1.01227 1.01406 0.999998 0.998239
1.01003 1.01165 1 0.998403
0.998969 1 1 0.998969
0.99989 1 1.0014 0.998494
1.00157 1.00257 1.0009 0.99811
1.01039 1.0118 1 0.9986
1.00516 1.00677 1 0.998406
0.999908 1 1 0.999908
0.99959 1 1 0.99959
0.99899 1 1 0.99899
0.998956 1 1.00001 0.998948
0.999038 1 1 0.999038
0.999302 1 1 0.999302
1.0162 1.01798 0.999998 0.998245
1.01137 1.01391 0.99915 0.998344
1.01205 1.01393 0.999562 0.998584
1.00873 1.0101 1 0.998644
0.999706 1 1.00088 0.998823
1.0019 1.00241 1.0014 0.998089
1.00091 1 1.00264 0.998276
0.999958 1 1 0.999958
0.99972 1 1 0.99972
0.999599 1 1 0.999599
0.999347 1 1 0.999347
0.999121 1 1 0.999121
0.998926 1 1.00002 0.998906
0.999017 1 1 0.999017
1.00341 1 1.0044 0.999013
0.999628 1 1 0.999628
0.999309 1 1 0.999309
1.00931 1.01079 1 0.99853
0.999151 1 1.00013 0.999017
1.00072 1 1.00185 0.998878
0.998933 1 1 0.99893
1.00097 1.00263 1 0.998338
1.00452 1.00595 1 0.998579
1.00327 1 1.0048 0.998479
0.998179 1.00005 1 0.998132
0.999378 1 1 0.999378
0.999081 1 1 0.999081
1.00285 1 1.00411 0.998744
0.998962 1 1.00013 0.998828
1.01564 1.01712 0.999936 0.998602
1.00898 1.01044 0.999949 0.998601
1.00274 1.00454 1 0.998207
1.00212 1.00019 1.00377 0.998161
0.999237 1 1 0.999237
1.0158 1.01893 0.998355 0.998565
0.999384 1 1.00048 0.998908
1.00124 1 1.00268 0.998561
1.01553 1.01728 0.999583 0.998694
1.0061 1.00788 1 0.998236
1.00335 1.00209 1.00323 0.998026
0.999459 1 1 0.999459
0.999312 1 1 0.999312
0.999193 1 1 0.999193
0.999709 1 1 0.999709
0.999505 1 1 0.999505
0.999335 1 1 0.999335
0.999705 1 1 0.999705
0.99949 1 1 0.99949
0.999234 1 1 0.999234
0.999369 1 1 0.999369
0.999155 1 1 0.999155
0.999231 1 1 0.999231
0.999375 1 1 0.999375
0.999498 1 1 0.999498
0.999695 1 1 0.999695
0.999957 1 1 0.999957
0.99996 1 1 0.99996
1 1 1 1
0.999963 1 1 0.999963
1 1 1 1
1 1 1 1
1 1 1 1
1 1 1 1
1 1 1 1
0.999974 1 1 0.999974
1 1 1 1
1 1 1 1
1 1 1 1
1 1 1 1
1 1 1 1
1 1 1 1
1.01254 1.01408 1 0.998483
1.01203 1.01372 1 0.998336
1.01258 1.01441 1 0.998195
1.0132 1.01512 1 0.998107
1.01379 1.01565 1 0.998173
1.01584 1.01756 1 0.998316
1.01553 1.01714 0.999953 0.998468
1.01698 1.01873 0.999993 0.998293
1.01896 1.02118 0.999382 0.998439
1.00841 1.01568 0.994216 0.998616
1.01481 1.0167 1 0.998139
1.01231 1.0141 1 0.998241
1.01002 1.01165 1 0.998391
0.999018 1 1.00006 0.998961
0.999812 1 1.00126 0.998552
1.00152 1.00263 1.00078 0.99812
1.0107 1.0121 1 0.998616
1.00511 1.00672 1 0.998398
0.998995 1 1 0.998995
0.998977 1 1 0.998977
0.999078 1 1.00004 0.999039
0.999931 1 1 0.999931
0.999591 1 1 0.999591
0.999286 1 1 0.999286
1.01597 1.01774 0.999997 0.998261
0.999954 1 1 0.999954
0.999706 1 1 0.999706
1.01121 1.01346 0.999435 0.998342
1.01323 1.01493 0.999764 0.998554
0.999703 1 1.00084 0.998864
1.00154 1 1.0033 0.998242
1.00143 1.0025 1.00084 0.998096
1.00819 1.00956 1 0.998637
0.99964 1 1 0.99964
0.999346 1 1 0.999346
0.998978 1 1 0.998978
1.00135 1 1.00227 0.999084
0.998908 1 1.00002 0.998886
0.999126 1 1 0.999126
1.01779 1.02031 0.999117 0.99841
1.01374 1.01664 0.998675 0.998465
1.01141 1.0146 0.998068 0.998782
1.00287 1.00452 0.999955 0.998405
1.00116 1 1.00234 0.998821
1.00404 1.00052 1.00547 0.998062
0.999724 1 1 0.999724
0.999678 1 1 0.999678
0.999521 1 1 0.999521
0.999348 1 1 0.999348
0.999195 1 1 0.999195
0.998951 1 1 0.998951
1.00518 1 1.00637 0.998814
0.999253 1 1.00015 0.999106