# vtk DataFile Version 2.0
Wound Healing Simulation
ASCII
DATASET UNSTRUCTURED_GRID
POINTS 3012 float
69.9759 18.75 4
67.2507 60.3285 4
69.976 18.75 2
73.0099 25.446 4
71.1327 20.9142 4
68.6801 16.6661 4
67.8263 19.9261 3.98404
67.2507 60.3286 2
71.1327 54.0858 4
68.6801 58.3339 4
65.6939 62.2254 4
65.313 59.0021 3.98493
74.6784 42.3946 4
73.7221 47.2057 4
69.9759 18.75 0
73.0099 25.446 2
68.6801 16.6661 2
71.1327 20.9142 2
67.8267 19.9288 2
74.6792 32.6053 4
73.7222 27.7943 4
72.1454 23.1494 4
70.6148 26.2212 3.9841
68.8865 21.9584 3.98453
67.2507 14.6715 4
66.6379 17.9714 3.98411
65.7984 21.025 3.97598
67.2507 60.3285 0
71.1327 54.0858 2
68.6801 58.3339 2
65.694 62.2255 2
65.3142 58.9996 2
72.1454 51.8506 4
69.9759 56.25 4
68.8369 53.1129 3.98352
64.0165 64.0165 4
66.6114 57.1343 3.98446
63.8866 60.7669 3.98679
63.502 57.7732 3.9782
60.3285 67.2507 4
74.6792 42.3947 2
73.7222 47.2057 2
74.9194 39.9526 4
74.2788 44.8158 4
72.1686 42.0857 3.98247
73.0099 49.554 4
71.2498 46.5983 3.983
73.0099 25.446 0
71.1327 20.9142 0
68.6801 16.6661 0
67.8263 19.9261 0.0159597
74.6792 32.6053 2
73.7222 27.7943 2
67.2508 14.6715 2
72.1455 23.1494 2
70.6149 26.2217 2
66.6387 17.9742 2
68.8868 21.9604 2
65.798 21.0252 2
74.9197 35.0474 4
74.2794 30.1841 4
72.1852 32.9432 3.98277
71.2788 28.4314 3.98349
69.8163 24.06 3.98446
68.3482 26.951 3.97458
66.7639 22.933 3.97545
65.694 12.7746 4
65.3247 16.1024 3.98572
64.7152 19.1941 3.97684
63.8875 22.0354 3.97192
71.1327 54.0858 0
65.6939 62.2254 0
68.6801 58.3339 0
65.313 59.0021 0.0150713
72.1455 51.8506 2
69.9759 56.25 2
68.8372 53.1108 2
64.0165 64.0165 2
66.6123 57.1314 2
63.8879 60.7653 2
63.502 57.774 2
62.2254 65.694 4
58.8952 65.4146 3.99207
69.7695 50.9888 3.9835
67.7843 55.1674 3.98369
66.6502 52.2095 3.97415
62.337 62.4282 3.98908
64.6624 56.0326 3.97737
62.2043 59.4064 3.97957
61.8242 56.6826 3.97406
58.3339 68.6801 4
60.3285 67.2508 2
73.7221 47.2057 0
74.6784 42.3946 0
74.9197 39.9526 2
74.2794 44.8159 2
72.1683 42.0856 2
73.0099 49.554 2
71.2499 46.5978 2
75 37.5 4
72.4057 39.8023 3.98253
71.783 44.3531 3.98283
69.8047 41.7899 3.97285
70.5756 48.8136 3.98318
68.9134 46.0154 3.97346
74.6792 32.6053 0
73.7222 27.7943 0
67.2507 14.6715 0
72.1454 23.1494 0
70.6148 26.2212 0.0159028
68.8865 21.9584 0.0154741
66.6379 17.9714 0.0158933
65.7984 21.025 0.024016
74.9197 35.0474 2
74.2794 30.1841 2
72.1849 32.9434 2
71.2788 28.4316 2
65.694 12.7745 2
65.3259 16.1044 2
69.8164 24.0612 2
68.3481 26.9512 2
64.715 19.1938 2
66.7636 22.9333 2
63.8871 22.0352 2
72.4135 35.2241 3.9825
71.8043 30.6762 3.98299
69.8407 33.2679 3.97339
68.9673 29.0376 3.97411
67.6126 24.9117 3.97483
66.1955 27.6338 3.97092
64.0165 10.9835 4
64.7573 23.8297 3.97169
63.8911 14.326 3.98764
63.5152 17.4448 3.97924
62.9074 20.3204 3.97198
62.0917 22.9441 3.97033
60.6846 11.0968 3.98992
57.6128 11.445 3.98357
72.1454 51.8506 0
69.9759 56.25 0
68.8369 53.1129 0.0164817
64.0165 64.0165 0
63.8866 60.7669 0.0132145
66.6114 57.1343 0.0155354
63.502 57.7732 0.0218007
62.2255 65.694 2
58.8958 65.4144 2
69.7696 50.9875 2
67.7848 55.1646 2
66.65 52.209 2
62.3381 62.4273 2
64.6622 56.0329 2
62.2043 59.4076 2
61.8242 56.6837 2
60.6695 63.9776 3.9908
57.026 66.7354 3.99274
57.5589 63.6938 3.98569
67.5083 50.1771 3.97357
65.7028 54.1736 3.97505
64.5374 51.3855 3.97029
60.7742 60.9402 3.98169
62.821 55.0687 3.97336
60.6594 58.1615 3.97494
60.3277 55.7859 3.97343
56.25 69.9759 4
58.3339 68.6801 2
60.3285 67.2507 0
58.9218 9.65514 3.99087
62.2254 9.30607 4
73.0099 49.554 0
74.2788 44.8158 0
71.2498 46.5983 0.0169966
72.1686 42.0857 0.0175274
74.9194 39.9526 0
75 37.5 2
72.4056 39.8024 2
71.7829 44.3526 2
69.8045 41.7896 2
70.5757 48.8129 2
68.9134 46.015 2
72.4891 37.5121 3.98229
70.0417 39.6573 3.97268
69.4314 43.9079 3.97325
67.5976 41.4976 3.96954
68.2668 48.1076 3.97335
66.7105 45.4404 3.9698
74.9197 35.0474 0
74.2794 30.1841 0
72.1852 32.9432 0.0172321
71.2788 28.4314 0.0165065
65.694 12.7746 0
65.3247 16.1024 0.0142828
69.8163 24.06 0.0155394
68.3482 26.951 0.0254247
66.7639 22.933 0.0245495
64.7152 19.1941 0.0231642
63.8875 22.0354 0.0280845
72.4135 35.2241 2
71.8043 30.6765 2
69.8405 33.2681 2
68.9674 29.0378 2
64.0165 10.9835 2
63.8922 14.3273 2
63.5153 17.4439 2
67.6124 24.912 2
66.1954 27.6338 2
62.9072 20.3198 2
64.757 23.8297 2
62.0914 22.944 2
60.6854 11.0975 2
57.613 11.4442 2
70.0584 35.3916 3.97285
69.4678 31.149 3.97342
67.6558 33.5903 3.96991
66.773 29.622 3.97025
65.5248 25.6987 3.97119
64.1466 28.2549 3.97017
62.3424 12.654 3.98889
62.8563 24.6373 3.97046
62.2009 15.782 3.98143
61.815 18.6834 3.97417
61.2156 21.3435 3.9691
60.4225 23.7291 3.97026
59.247 12.7764 3.98217
55.8747 10.2315 3.98517
56.4056 13.1111 3.98012
69.7695 50.9888 0.0164954
62.2254 65.694 0
58.8952 65.4146 0.00792798
67.7843 55.1674 0.0163058
66.6502 52.2095 0.0258526
62.337 62.4282 0.0109227
62.2043 59.4064 0.0204342
64.6624 56.0326 0.0226274
61.8242 56.6826 0.0259365
60.6704 63.9771 2
57.0264 66.7354 2
57.559 63.695 2
67.5082 50.1766 2
65.7025 54.1735 2
64.5372 51.3855 2
60.7743 60.9414 2
62.8209 55.0695 2
60.6595 58.1628 2
60.3279 55.7865 2
55.0715 67.9324 3.993
59.2201 62.3683 3.98295
55.8057 64.9118 3.98807
56.3277 62.0929 3.98165
65.3317 49.4088 3.96956
63.7055 53.2921 3.97041
62.4399 50.6517 3.96849
59.3344 59.5597 3.97851
61.0756 54.309 3.97254
59.2891 57.0123 3.97217
59.2405 55.1812 3.97588
48.1038 68.5796 3.98907
50.9491 69.932 3.99318
54.0858 71.1327 4
56.25 69.976 2
58.3339 68.6801 0
57.0591 8.3352 3.99139
60.3285 7.74928 4
58.9225 9.65555 2
62.2255 9.30602 2
70.5756 48.8136 0.0168171
71.783 44.3531 0.0171665
68.9134 46.0154 0.0265368
69.8047 41.7899 0.0271467
72.4057 39.8023 0.0174746
75 37.5 0
72.4888 37.5122 2
70.0417 39.6572 2
69.4312 43.9077 2
67.5974 41.4975 2
68.2668 48.1072 2
66.7105 45.4403 2
70.1297 37.5213 3.97274
67.8347 39.5122 3.96953
67.2243 43.4702 3.96972
65.5525 41.2095 3.9698
66.069 47.4186 3.96953
64.6525 44.8483 3.96935
72.4135 35.2241 0.0174972
71.8043 30.6762 0.0170054
69.8407 33.2679 0.0266057
68.9673 29.0376 0.0258923
64.0165 10.9835 0
63.8911 14.326 0.0123587
63.5152 17.4448 0.0207631
67.6126 24.9117 0.0251742
66.1955 27.6338 0.0290843
64.7573 23.8297 0.0283071
62.9074 20.3204 0.0280196
62.0917 22.9441 0.0296744
60.6846 11.0968 0.0100823
57.6128 11.445 0.016432
70.0583 35.3917 2
69.4679 31.1492 2
67.6556 33.5903 2
66.773 29.6219 2
62.3434 12.655 2
62.2008 15.7811 2
61.8151 18.6822 2
65.5245 25.6988 2
64.1465 28.2549 2
61.2156 21.343 2
62.8561 24.6373 2
60.4223 23.7292 2
59.247 12.7758 2
56.4055 13.1101 2
55.8748 10.2307 2
67.8707 35.5471 3.96966
67.2655 31.6217 3.96982
65.6966 33.9269 3.96989
64.6629 30.1915 3.96953
63.5378 26.4139 3.97015
62.2548 28.7781 3.97143
60.7765 14.2209 3.982
61.0428 25.3385 3.97055
60.6144 17.1251 3.97798
60.2211 19.8173 3.9704
59.656 22.2619 3.96859
58.9727 24.3229 3.97071
54.0378 9.13459 3.98619
57.911 14.3296 3.98036
54.7869 12.0101 3.9815
55.3125 14.6446 3.97876
67.5083 50.1771 0.0264313
57.026 66.7354 0.00725661
60.6695 63.9776 0.00920404
57.5589 63.6938 0.0143121
65.7028 54.1736 0.0249467
64.5374 51.3855 0.0297122
60.7742 60.9402 0.0183084
60.6594 58.1615 0.0250605
62.821 55.0687 0.0266358
60.3277 55.7859 0.0265706
55.0718 67.9325 2
59.2203 62.3695 2
55.8057 64.9128 2
56.3277 62.0942 2
65.3316 49.4087 2
63.7053 53.2925 2
62.4397 50.6517 2
59.3344 59.5609 2
61.0759 54.3094 2
59.2894 57.0128 2
59.2409 55.1815 2
53.0433 69.0002 3.99313
53.9681 66.0142 3.98882
57.8813 60.8725 3.98003
54.6847 63.2105 3.98394
55.2118 60.619 3.97951
63.1925 48.661 3.96844
61.738 52.5745 3.96795
60.2645 50.0165 3.96785
58.0184 58.2624 3.97434
59.3232 53.945 3.97237
58.1243 55.8076 3.97014
50.1105 67.8575 3.98906
47.464 66.5828 3.98655
46.0573 69.1589 3.98905
48.1038 68.58 2
48.8032 70.7233 3.99328
50.9494 69.9322 2
51.8506 72.1454 4
54.0858 71.1327 2
56.25 69.9759 0
55.1035 7.13989 3.99172
58.3339 6.31992 4
57.0597 8.33541 2
60.3286 7.74926 2
58.9218 9.65514 0.00912584
62.2254 9.30607 0
68.2668 48.1076 0.0266471
69.4314 43.9079 0.0267467
66.7105 45.4404 0.0301951
67.5976 41.4976 0.0304648
70.0417 39.6573 0.0273238
72.4891 37.5121 0.0177073
70.1296 37.5213 2
67.8347 39.5121 2
67.2242 43.4701 2
65.5522 41.2094 2
66.0689 47.4185 2
64.6524 44.8482 2
67.931 37.5217 3.96957
65.7821 39.3699 3.96994
65.1758 43.0251 3.96958
63.7347 40.9288 3.97181
63.9636 46.7165 3.9688
62.8006 44.2153 3.97179
70.0584 35.3916 0.0271524
69.4678 31.149 0.0265836
67.6558 33.5903 0.0300937
66.773 29.622 0.0297504
62.3424 12.654 0.0111127
62.2009 15.782 0.0185747
61.815 18.6834 0.0258324
65.5248 25.6987 0.0288071
64.1466 28.2549 0.0298346
62.8563 24.6373 0.0295426
61.2156 21.3435 0.0308964
60.4225 23.7291 0.0297403
59.247 12.7764 0.0178345
56.4056 13.1111 0.0198778
55.8747 10.2315 0.0148291
67.8706 35.5471 2
67.2655 31.6217 2
65.6965 33.9268 2
64.6629 30.1915 2
60.7765 14.2202 2
60.6143 17.1239 2
60.2214 19.8163 2
63.5376 26.4139 2
62.2544 28.7781 2
59.6561 22.2619 2
61.0426 25.3386 2
58.9725 24.3232 2
57.9107 14.3287 2
55.3122 14.6438 2
54.0378 9.13382 2
54.7869 12.0091 2
65.8719 35.6664 3.96987
65.1835 32.1539 3.96944
64.2711 34.2495 3.9713
62.5837 30.6362 3.97118
61.6465 27.0729 3.97064
60.8379 29.1414 3.9741
59.3118 15.6662 3.97984
59.3185 25.7993 3.97247
59.1236 18.3545 3.97537
58.7347 20.8584 3.9669
58.2761 23.0966 3.9687
57.9553 24.6683 3.97168
52.1124 8.15277 3.98697
53.0581 11.016 3.98271
56.6768 15.7405 3.97961
53.8093 13.6796 3.97963
54.3758 15.9979 3.97901
55.0715 67.9324 0.0069994
65.3317 49.4088 0.0304421
55.8057 64.9118 0.0119283
59.2201 62.3683 0.0170496
56.3277 62.0929 0.0183459
63.7055 53.2921 0.0295881
62.4399 50.6517 0.0315112
59.3344 59.5597 0.0214888
59.2891 57.0123 0.0278332
61.0756 54.309 0.0274614
59.2405 55.1812 0.0241201
53.0436 69.0003 2
53.968 66.0149 2
57.8813 60.8738 2
54.6847 63.2117 2
55.2118 60.6205 2
63.1924 48.6609 2
61.7379 52.5746 2
60.2646 50.0164 2
58.0186 58.2638 2
59.3237 53.9451 2
58.1247 55.8076 2
52.0716 67.0007 3.98904
52.9542 64.2213 3.98569
56.6486 59.4905 3.97788
[...]
POINT_DATA 3012
SCALARS Jp_lamdaP float 4
LOOKUP_TABLE default
0.99997 1 1 0.99997
1 1 1 1
0.999972 1 1 0.999972
0.999944 1 1 0.999944
0.999964 1 1 0.999964
0.999978 1 1 0.999978
0.999713 1 1 0.999713
1 1 1 1
1 1 1 1
1 1 1 1
1 1 1 1
0.999863 1 1 0.999863
0.999908 1 1 0.999908
0.999939 1 1 0.999939
0.999973 1 1 0.999973
0.999949 1 1 0.999949
0.999981 1 1 0.999981
0.999967 1 1 0.999967
0.999716 1 1 0.999716
1 1 1 1
0.999935 1 1 0.999935
0.999955 1 1 0.999955
0.999598 1 1 0.999598
0.999675 1 1 0.999675
0.999992 1 1 0.999992
0.999762 1 1 0.999762
0.999289 1 1 0.999289
1 1 1 1
0.999977 1 1 0.999977
0.999989 1 1 0.999989
1 1 1 1
0.99987 1 1 0.99987
0.999949 1 1 0.999949
0.999971 1 1 0.999971
0.999749 1 1 0.999749
1 1 1 1
0.999834 1 1 0.999834
0.999908 1 1 0.999908
0.999381 1 1 0.999381
1 1 1 1
1 1 1 1
0.999968 1 1 0.999968
1 1 1 1
0.999928 1 1 0.999928
0.999552 1 1 0.999552
1 1 1 1
0.999681 1 1 0.999681
0.999954 1 1 0.999954
0.999969 1 1 0.999969
0.999983 1 1 0.999983
0.99972 1 1 0.99972
0.999955 1 1 0.999955
0.999941 1 1 0.999941
0.999994 1 1 0.999994
0.999959 1 1 0.999959
0.9996 1 1 0.9996
0.999765 1 1 0.999765
0.999678 1 1 0.999678
0.999275 1 1 0.999275
1 1 1 1
0.999921 1 1 0.999921
0.999629 1 1 0.999629
0.999576 1 1 0.999576
0.999635 1 1 0.999635
0.999017 1 1 0.999017
0.999151 1 1 0.999151
1 1 1 1
0.999839 1 1 0.999839
0.999398 1 1 0.999398
0.998833 1 1 0.998833
1 1 1 1
1 1 1 1
1 1 1 1
0.999877 1 1 0.999877
1 1 1 1
1 1 1 1
0.999733 1 1 0.999733
1 1 1 1
0.999831 1 1 0.999831
0.999921 1 1 0.999921
0.999379 1 1 0.999379
1 1 1 1
0.999999 1 1 0.999999
0.999687 1 1 0.999687
0.99977 1 1 0.99977
0.99905 1 1 0.99905
0.999957 1 1 0.999957
0.99931 1 1 0.99931
0.999451 1 1 0.999451
0.999068 1 1 0.999068
1 1 1 1
1 1 1 1
1 1 1 1
1 1 1 1
1 1 1 1
0.99996 1 1 0.99996
0.99959 1 1 0.99959
0.999971 1 1 0.999971
0.999669 1 1 0.999669
1 1 1 1
0.999522 1 1 0.999522
0.99965 1 1 0.99965
0.99874 1 1 0.99874
0.999703 1 1 0.999703
0.998846 1 1 0.998846
0.999918 1 1 0.999918
0.999946 1 1 0.999946
0.999997 1 1 0.999997
0.999963 1 1 0.999963
0.999602 1 1 0.999602
0.999682 1 1 0.999682
0.999769 1 1 0.999769
0.999261 1 1 0.999261
1 1 1 1
0.999929 1 1 0.999929
0.999545 1 1 0.999545
0.999576 1 1 0.999576
1 1 1 1
0.999868 1 1 0.999868
0.999638 1 1 0.999638
0.998991 1 1 0.998991
0.99938 1 1 0.99938
0.999169 1 1 0.999169
0.998835 1 1 0.998835
0.999539 1 1 0.999539
0.999553 1 1 0.999553
0.998831 1 1 0.998831
0.998932 1 1 0.998932
0.999046 1 1 0.999046
0.998592 1 1 0.998592
1 1 1 1
0.998753 1 1 0.998753
0.999949 1 1 0.999949
0.999449 1 1 0.999449
0.998919 1 1 0.998919
0.998645 1 1 0.998645
0.99999 1 1 0.99999
0.999675 1 1 0.999675
1 1 1 1
1 1 1 1
0.999739 1 1 0.999739
1 1 1 1
0.999934 1 1 0.999934
0.999835 1 1 0.999835
0.999377 1 1 0.999377
1 1 1 1
1 1 1 1
0.999708 1 1 0.999708
0.999789 1 1 0.999789
0.999052 1 1 0.999052
0.999968 1 1 0.999968
0.999312 1 1 0.999312
0.99945 1 1 0.99945
0.999056 1 1 0.999056
0.999989 1 1 0.999989
1 1 1 1
0.999742 1 1 0.999742
0.998947 1 1 0.998947
0.999188 1 1 0.999188
0.99869 1.00002 1 0.998674
0.999543 1 1 0.999543
0.998981 1 1 0.998981
0.999118 1 1 0.999118
0.99894 1 1 0.99894
1 1 1 1
1 1 1 1
1 1 1 1
0.999998 1 1 0.999998
1 1 1 1
1 1 1 1
1 1 1 1
0.999654 1 1 0.999654
0.999571 1 1 0.999571
1 1 1 1
1 1 1 1
0.999524 1 1 0.999524
0.999638 1 1 0.999638
0.99874 1 1 0.99874
0.999674 1 1 0.999674
0.998847 1 1 0.998847
0.999511 1 1 0.999511
0.998679 1 1 0.998679
0.998803 1 1 0.998803
0.999325 1.00094 1 0.998389
0.998886 1 1 0.998886
0.998581 1.00008 1 0.998501
1 1 1 1
0.999936 1 1 0.999936
0.999457 1 1 0.999457
0.999577 1 1 0.999577
1 1 1 1
0.999898 1 1 0.999898
0.999641 1 1 0.999641
0.998964 1 1 0.998964
0.999188 1 1 0.999188
0.999362 1 1 0.999362
0.998837 1 1 0.998837
0.999536 1 1 0.999536
0.999554 1 1 0.999554
0.998777 1 1 0.998777
0.998952 1 1 0.998952
1 1 1 1
0.999939 1 1 0.999939
0.999472 1 1 0.999472
0.999047 1 1 0.999047
0.998561 1 1 0.998561
0.998916 1 1 0.998916
0.99877 1 1 0.99877
0.998651 1 1 0.998648
0.999986 1 1 0.999986
0.999675 1 1 0.999675
0.998693 1 1 0.998693
0.998891 1 1 0.998891
0.998828 1.00037 1 0.998461
0.998483 1 1 0.998483
0.998682 1 1 0.998682
0.999264 1.00082 1 0.998444
0.999974 1 1 0.999974
0.998682 1.0001 1 0.998582
0.999513 1 1 0.999513
0.999055 1 1 0.999055
0.998729 1 1 0.998729
0.998941 1.00035 1 0.998591
0.999592 1 1 0.999592
0.999773 1 1 0.999773
0.99932 1 1 0.99932
0.9997 1 1 0.9997
1 1 1 1
1 1 1 1
0.999791 1 1 0.999791
0.999055 1 1 0.999055
0.999979 1 1 0.999979
0.99945 1 1 0.99945
0.999314 1 1 0.999314
0.999045 1 1 0.999045
0.999993 1 1 0.999993
1 1 1 1
0.999743 1 1 0.999743
0.998948 1 1 0.998948
0.999192 1 1 0.999192
0.998683 1.00001 1 0.998673
0.999543 1 1 0.999543
0.998991 1 1 0.998991
0.999116 1 1 0.999116
0.998929 1 1 0.998929
1 1 1 1
0.999636 1 1 0.999636
0.999845 1 1 0.999845
0.999399 1 1 0.999399
0.998706 1.00013 1 0.998578
0.998839 1 1 0.998839
1.00026 1.00177 1 0.998491
0.999219 1 1 0.999219
0.998852 1 1 0.998851
0.999444 1 1.00054 0.998906
0.998834 1 1 0.998834
0.999965 1 1 0.999965
1 1 1 1
1 1 1 1
1 1 1 1
1 1 1 1
1 1 1 1
1 1 1 1
0.999996 1 1 0.999996
1 1 1 1
0.999676 1 1 0.999676
0.99962 1 1 0.99962
0.998847 1 1 0.998847
0.99874 1 1 0.99874
0.999526 1 1 0.999526
1 1 1 1
0.99951 1 1 0.99951
0.99868 1 1 0.99868
0.998803 1 1 0.998803
0.99915 1.00076 1 0.998389
0.998886 1 1 0.998886
0.998614 1.00011 1 0.998501
0.998665 1 1 0.998665
0.999641 1.00131 1 0.998329
0.998799 1.00035 1 0.998452
1.00362 1.00532 1 0.998307
0.998693 1.00016 1 0.998535
1.00118 1.00279 1 0.998394
0.999533 1 1 0.999533
0.999554 1 1 0.999554
0.998723 1 1 0.998723
0.998972 1 1 0.998972
1 1 1 1
0.999929 1 1 0.999929
0.999494 1 1 0.999494
0.999048 1 1 0.999048
0.998529 1 1 0.998529
0.998786 1 1 0.998786
0.998912 1 1 0.998912
0.998658 1.00001 1 0.998651
0.999982 1 1 0.999982
0.999675 1 1 0.999675
0.998675 1 1 0.998675
0.99889 1 1 0.99889
0.998943 1.00049 1 0.998449
0.99853 1.00001 1 0.998516
0.999968 1 1 0.999968
0.999512 1 1 0.999512
0.999081 1 1 0.999081
0.998682 1 1 0.998682
0.999544 1.00111 1 0.998438
0.998703 1 1 0.998703
0.9988 1.00022 1 0.998583
0.99926 1.00067 1 0.998592
0.999594 1 1 0.999594
0.999318 1 1 0.999318
0.999771 1 1 0.999771
0.999189 1.00079 1 0.998399
0.998886 1.0004 1 0.998486
1.00316 1.00486 1 0.998304
1.00021 1.00184 1 0.998372
0.999068 1.00056 1 0.998511
1.00286 1.00441 1 0.998448
0.99955 1 1 0.99955
1.00024 1.00169 1 0.99855
0.999221 1 1 0.999221
0.998821 1 1 0.998821
0.998709 1.00013 1 0.998578
1.00167 1.00303 1 0.998646
0.999847 1 1 0.999847
0.999303 1 1 0.999303
0.999367 1 1 0.999367
0.99919 1 1 0.99919
0.998949 1 1 0.998949
1 1 1 1
0.999996 1 1 0.999996
0.999744 1 1 0.999744
0.999197 1 1 0.999197
0.998673 1 1 0.998673
0.999544 1 1 0.999544
0.999114 1 1 0.999114
0.999001 1 1 0.999001
0.998918 1 1 0.998918
1 1 1 1
0.999635 1 1 0.999635
0.999849 1 1 0.999849
0.999397 1 1 0.999397
0.998676 1.0001 1 0.998576
0.998841 1 1 0.998841
0.999847 1.00136 1 0.998491
0.999221 1 1 0.999221
0.998869 1.00001 1 0.998863
0.999395 1 1.0005 0.998898
0.998881 1 1 0.998881
1 1 1 1
0.999908 1 1 0.999908
0.999315 1 1 0.999315
0.999498 1 1 0.999498
0.999205 1 1 0.999205
1.00077 1.00235 1 0.998424
0.99915 1.00048 1 0.998667
1.00142 1.00299 1 0.998436
0.999721 1 1.00074 0.998982
0.998783 1 1 0.998783
0.99926 1 1.00056 0.998697
0.999954 1 1 0.999954
0.999724 1 1 0.999724
0.999972 1 1 0.999972
0.999967 1 1 0.999967
1 1 1 1
1 1 1 1
1 1 1 1
1 1 1 1
1 1 1 1
1 1 1 1
1 1 1 1
1 1 1 1
1 1 1 1
0.999995 1 1 0.999995
1 1 1 1
0.998886 1 1 0.998886
0.998803 1 1 0.998803
0.998643 1.00014 1 0.998501
0.99897 1.00058 1 0.998388
0.99868 1 1 0.99868
0.999509 1 1 0.999509
0.998665 1 1 0.998665
0.999565 1.00124 1 0.998329
0.998684 1.00023 1 0.998452
1.00366 1.00536 1 0.998304
0.998712 1.00018 1 0.998534
1.00083 1.00244 1 0.998394
0.999574 1.00126 1 0.998314
1.00581 1.00757 1 0.998255
1.00233 1.00399 1 0.99835
1.00905 1.01075 1 0.998321
1.0006 1.00219 1 0.998415
1.00549 1.00705 1 0.998452
0.998658 1 1 0.998658
0.998889 1 1 0.998889
0.999048 1.00061 1 0.998436
0.998577 1.00003 1 0.998549
0.999961 1 1 0.999961
0.999511 1 1 0.999511
0.999107 1 1 0.999107
0.998683 1 1 0.998683
0.999829 1.0014 1 0.998431
0.998909 1.00033 1 0.998584
0.998677 1 1 0.998677
0.999605 1.00101 1 0.998592
0.999596 1 1 0.999596
0.999316 1 1 0.999316
0.999769 1 1 0.999769
0.999312 1.00094 1 0.998371
0.998863 1.00038 1 0.998485
1.0033 1.00501 1 0.998295
1.00079 1.00241 1 0.998378
0.999551 1 1 0.999551
0.999218 1 1 0.999218
0.998854 1 1 0.998852
0.999188 1.00067 1 0.998522
1.00268 1.00423 1 0.998458
0.998674 1.00012 1 0.998559
1.00052 1.00198 1 0.998551
1.00138 1.00272 1 0.998657
0.999305 1 1 0.999305
0.999175 1 1 0.999175
0.999844 1 1 0.999844
0.99938 1 1 0.99938
1.00426 1.00603 1 0.998246
1.0025 1.00417 1 0.998338
1.00962 1.01138 1 0.998266
1.00467 1.0063 1 0.998382
1.00198 1.00348 1 0.998509
1.00656 1.00807 1 0.9985
0.999287 1 1 0.999287
1.00322 1.00458 1 0.998653
0.999022 1 1 0.999022
0.998811 1 1.00018 0.998635
0.999696 1.0012 1 0.998495
1.00352 1.00487 1 0.998662
0.999887 1 1 0.999887
0.999458 1 1 0.999458
0.999181 1 1 0.999181
0.999209 1 1 0.999209
0.999129 1 1 0.999129
1 1 1 1
0.998641 1.00007 1 0.998574
0.999853 1 1 0.999853
0.999635 1 1 0.999635
0.999395 1 1 0.999395
0.998844 1 1 0.998844
0.999466 1.00098 1 0.99849
0.999223 1 1 0.999223
0.999378 1 1.00049 0.99889
0.998875 1 1 0.998875
0.998929 1 1 0.998929
1 1 1 1
0.999913 1 1 0.999913
0.999315 1 1 0.999315
0.999498 1 1 0.999498
0.999192 1 1 0.999192
1.00074 1.00232 1 0.998421
0.999032 1.00036 1 0.998668
1.00151 1.00309 1 0.99843
0.999561 1 1.00058 0.998985
0.998793 1 1 0.998793
0.999457 1 1.00074 0.998714
0.999937 1 1 0.999937
0.999591 1 1 0.999591
0.999224 1 1.00013 0.999098
0.999283 1 1 0.999283
0.999086 1 1 0.999086
1.00343 1.00504 1 0.998401
0.999852 1.00125 1 0.9986
1.00224 1.00371 1 0.998537
1.0017 1 1.00292 0.998786
0.998597 1 1 0.998597
0.999957 1 1 0.999957
0.999668 1 1 0.999668
0.999709 1 1 0.999709
0.999557 1 1 0.999557
0.999732 1 1 0.999732
0.999976 1 1 0.999976
0.999974 1 1 0.999974
1 1 1 1
0.99997 1 1 0.99997
1 1 1 1
1 1 1 1
1 1 1 1
1 1 1 1
1 1 1 1
1 1 1 1
1 1 1 1
1 1 1 1
1 1 1 1
0.999999 1 1 0.999999
1 1 1 1
0.998742 1.00021 1 0.998532
0.998566 1.00011 1 0.998452
1.00048 1.00209 1 0.998394
1.00369 1.0054 1 0.998302
0.9995 1.00117 1 0.99833
0.998664 1 1 0.998664
0.999618 1.00131 1 0.998314
1.00591 1.00768 1 0.998248
1.00199 1.00365 1 0.99835
1.00908 1.01077 1 0.998327
1.00079 1.00238 1 0.998412
1.0054 1.00696 1 0.998455
1.00544 1.00723 1 0.998224
1.0117 1.01346 1 0.998264
1.0069 1.00853 1 0.998388
1.00995 1.01162 1 0.998353
1.00521 1.00678 1 0.998441
1.00841 1.00991 1 0.998517
0.999443 1.0011 1 0.998343
0.998838 1.00035 1 0.998484
1.00344 1.00516 1 0.998287
1.00137 1.00299 1 0.998383
0.999553 1 1 0.999553
0.999214 1 1 0.999214
0.998964 1 1.00008 0.998884
0.999318 1.00079 1 0.998532
1.00248 1.00402 1 0.998468
1.00078 1.00223 1 0.998551
0.998642 1.0001 1 0.998539
1.00111 1.00244 1 0.998667
0.999308 1 1 0.999308
0.99916 1 1 0.99916
0.999841 1 1 0.999841
0.999394 1 1 0.999394
1.0044 1.00617 1 0.998247
1.00271 1.00439 1 0.998336
1.00923 1.01097 1 0.99827
1.00422 1.00585 1 0.998381
0.999286 1 1 0.999286
0.999049 1 1 0.999049
0.998969 1 1.00034 0.998632
1.00187 1.00337 1 0.998502
1.00643 1.00791 1 0.998532
0.999841 1.00136 1 0.998486
1.00321 1.00456 1 0.998654
1.00344 1.00475 1 0.998691
0.999182 1 1 0.999182
0.999125 1 1 0.999125
0.999207 1 1 0.999207
0.999862 1 1 0.999862
0.999469 1 1 0.999469
1.01136 1.01314 1 0.998237
1.00897 1.0107 1 0.998283
1.00773 1.0093 1 0.998449
1.0059 1.00733 1 0.998586
0.999163 1 1 0.999163
1.00544 1.00671 1 0.998735
0.999109 1 1.00023 0.998883
0.999405 1.00048 1.00051 0.998422
1.0018 1.00338 1 0.99843
0.999871 1 1 0.999871
0.999575 1 1 0.999575
0.999301 1 1 0.999301
0.999144 1 1 0.999144
0.999084 1 1 0.999084
0.999083 1 1 0.999083
1 1 1 1
0.999917 1 1 0.999917
1.00068 1.00227 1 0.998418
0.999498 1 1 0.999498
0.999315 1 1 0.999315
0.999178 1 1 0.999178
0.998922 1.00025 1 0.998669
1.00147 1.00305 1 0.998425
0.999538 1 1.00055 0.998988
0.999352 1 1.00062 0.998731
0.998803 1 1 0.998803
0.999941 1 1 0.999941
0.999592 1 1 0.999592
0.999254 1 1.00015 0.999107
0.999282 1 1 0.999282
0.999072 1 1 0.999072
1.00348 1.00509 1 0.998398
0.999569 1.00098 1 0.998594
1.0022 1.00365 1 0.998555
1.00112 1 1.00234 0.998774
0.998622 1 1.00006 0.998566
0.999655 1 1 0.999655
0.999344 1 1 0.999344
1.00036 1 1.00141 0.998953
0.999091 1 1 0.999091
0.998984 1 1 0.998984
1.00691 1.00829 1 0.998632
0.999744 1.00124 1 0.998506
1.00302 1.00445 1 0.998572
1.00263 1 1.00398 0.99866
0.998367 1 1 0.998367
0.99996 1 1 0.99996
0.999681 1 1 0.999681
0.999474 1 1 0.999474
0.999693 1 1 0.999693
0.999732 1 1 0.999732
0.999534 1 1 0.999534
0.999413 1 1 0.999413
0.999526 1 1 0.999526
0.999738 1 1 0.999738
0.999975 1 1 0.999975
0.999976 1 1 0.999976
1 1 1 1
0.999975 1 1 0.999975
1 1 1 1
1 1 1 1
1 1 1 1
1 1 1 1
1 1 1 1
1 1 1 1
1 1 1 1
1 1 1 1
1 1 1 1
1 1 1 1
1 1 1 1
1.00098 1.00257 1 0.99841
1.00166 1.00331 1 0.99835
1.00532 1.00687 1 0.998458
1.00912 1.01081 1 0.998332
1.006 1.00778 1 0.99824
0.99966 1.00135 1 0.998314
1.00547 1.00727 1 0.998219
1.01167 1.01343 1 0.998263
1.00731 1.00895 1 0.998375
1.01024 1.0119 1 0.998352
1.0046 1.00617 1 0.998442
1.00839 1.00986 1 0.998538
1.01144 1.01323 1 0.998233
1.01195 1.01365 1 0.998321
1.01054 1.01212 1 0.998439
1.00836 1.00977 1 0.998607
1.00453 1.0063 1 0.998248
1.00292 1.0046 1 0.998334
1.00883 1.01057 1 0.998274
1.00378 1.00541 1 0.998379
0.999285 1 1 0.999285
0.999075 1 1 0.999075
0.999148 1 1.00052 0.998628
1.00175 1.00326 1 0.998494
1.00634 1.00779 1 0.998564
1.00323 1.00458 1 0.998656
0.999929 1.00146 1 0.998476
1.00328 1.00456 1 0.99872
0.999182 1 1 0.999182
0.999121 1 1 0.999121
0.999204 1 1 0.999204
0.999837 1 1 0.999837
0.99948 1 1 0.99948
1.011 1.01278 1 0.998241
1.00886 1.01058 1 0.99829
1.00758 1.00914 1 0.998453
0.99916 1 1 0.99916
0.999159 1 1.00025 0.998912
0.999624 1.00045 1.00076 0.998415
1.00607 1.0075 1 0.998577
1.00193 1.00346 1 0.998471
1.00475 1.00602 1 0.998733
0.999874 1 1 0.999874
0.999142 1 1 0.999142
0.999098 1 1 0.999098
0.999079 1 1 0.999079
0.999309 1 1 0.999309
0.999556 1 1 0.999556
1.01201 1.01377 1 0.998261
1.00954 1.01121 1 0.998346
1.00829 1.00979 1 0.99852
1.00798 1.0093 1 0.998694
0.999085 1 1 0.999085
1.00286 1.00432 1 0.998553
1.00024 1 1.00163 0.998605
1.00064 1.00131 1.00104 0.998284
0.999904 1 1 0.999904
0.999635 1 1 0.999635
0.99938 1 1 0.99938
0.99912 1 1 0.99912
0.999079 1 1 0.999079
0.999018 1 1 0.999018
0.999945 1 1 0.999945
0.999593 1 1 0.999593
1.0036 1.00522 1 0.998395
0.999281 1 1 0.999281
0.999116 1 1 0.999116
0.999058 1 1 0.999058
0.999342 1.00075 1 0.998589
1.00228 1.00371 1 0.998573
1.00054 1 1.00178 0.998762
0.998803 1 1.00027 0.998536
0.999656 1 1 0.999656
0.999352 1 1 0.999352
1.00026 1 1.00129 0.998969
0.999097 1 1 0.999097
0.998999 1 1 0.998999
1.00695 1.00832 1 0.998641
0.999714 1.00121 1 0.998504
1.00311 1.00447 1 0.998648
1.00287 1 1.00423 0.998645
0.998361 1 1.00003 0.998332
0.999429 1 1 0.999429
0.999144 1 1 0.999144
1.00229 1 1.00345 0.998843
0.998914 1 1 0.998914
1.01358 1.01489 1 0.998705
1.00841 1.00982 0.999872 0.998734
1.00128 1.00295 1 0.998333
1.0025 1 1.00416 0.998355
0.999694 1 1 0.999694
0.999484 1 1 0.999484
0.999355 1 1 0.999355
0.999732 1 1 0.999732
0.99951 1 1 0.99951
0.999738 1 1 0.999738
0.999395 1 1 0.999395
0.999535 1 1 0.999535
0.999295 1 1 0.999295
0.999394 1 1 0.999394
0.999531 1 1 0.999531
0.999737 1 1 0.999737
0.999971 1 1 0.999971
0.999974 1 1 0.999974
1 1 1 1
0.999976 1 1 0.999976
1 1 1 1
1 1 1 1
1 1 1 1
1 1 1 1
1 1 1 1
1 1 1 1
1 1 1 1
1 1 1 1
1 1 1 1
1 1 1 1
1 1 1 1
1.00399 1.00556 1 0.998442
1.00772 1.00937 1 0.998363
1.00836 1.00981 1 0.998558
1.0105 1.01217 1 0.998351
1.01162 1.01338 1 0.998262
1.00552 1.00732 1 0.998214
1.01131 1.01309 1 0.998238
1.01144 1.01314 1 0.998319
1.01025 1.01182 1 0.998444
1.00928 1.01069 1 0.998602
1.01288 1.01462 1 0.998287
1.01276 1.01435 1 0.998431
1.01262 1.01408 1 0.998555
1.01064 1.01242 1 0.998244
1.00875 1.01048 1 0.998297
1.00738 1.00893 1 0.998457
0.999157 1 1 0.999157
0.999087 1 1.00015 0.998941
0.999699 1.00045 1.00085 0.998409
1.00617 1.00761 1 0.998568
1.0042 1.00547 1 0.998731
1.00218 1.00367 1 0.998511
0.999141 1 1 0.999141
0.999113 1 1 0.999113
0.999073 1 1 0.999073
0.999876 1 1 0.999876
0.999317 1 1 0.999317
0.999537 1 1 0.999537
1.01263 1.01439 1 0.998263
1.00939 1.01106 1 0.998348
1.00819 1.0097 1 0.998507
0.999078 1 1 0.999078
1.00002 1 1.00137 0.998657
1.00059 1.0014 1.0009 0.998293
1.00831 1.00961 1 0.998711
1.00316 1.00462 1 0.998547
0.999925 1 1 0.999925
0.999635 1 1 0.999635
0.999082 1 1 0.999082
0.999043 1 1 0.999043
0.999121 1 1 0.999121
0.999365 1 1 0.999365
1.01323 1.0149 1 0.998352
1.00955 1.01152 0.999611 0.998437
1.01041 1.01212 0.999628 0.998682
1.00719 1.00845 1 0.998755
0.999812 1 1.00087 0.998944
1.00123 1.00157 1.0014 0.998255
1.00109 1 1.00264 0.998451
0.999968 1 1 0.999968
0.999751 1 1 0.999751
0.999641 1 1 0.999641
0.999406 1 1 0.999406
0.999195 1 1 0.999195
0.998993 1 1 0.998993
0.999106 1 1 0.999106
1.00226 1 1.00317 0.99909
0.999657 1 1 0.999657
0.999361 1 1 0.999361
1.00687 1.00823 1 0.99865
0.999103 1 1 0.999103
1.00037 1 1.00139 0.998986
0.999014 1 1 0.999014
0.999635 1.00113 1 0.998502
1.00309 1.00437 1 0.998724
1.00312 1 1.0045 0.998631
0.998296 1 1 0.998296
0.99942 1 1 0.99942
0.999153 1 1 0.999153
1.00267 1 1.00381 0.998858
0.998933 1 1 0.99893
1.01316 1.01448 0.999998 0.9987
1.00775 1.00909 0.999949 0.998723
1.00172 1.00336 1 0.998369
1.00201 1 1.00368 0.998331
0.999288 1 1 0.999288
1.01398 1.0166 0.99877 0.998654
0.999226 1 1.00023 0.998995
1.00125 1 1.00256 0.998694
1.01461 1.01613 0.999719 0.998789
1.00589 1.00751 1 0.998385
1.00286 1.00143 1.00323 0.9982
0.999495 1 1 0.999495
0.999354 1 1 0.999354
0.99924 1 1 0.99924
0.999738 1 1 0.999738
0.999543 1 1 0.999543
0.999378 1 1 0.999378
0.999737 1 1 0.999737
0.999531 1 1 0.999531
0.99928 1 1 0.99928
0.999412 1 1 0.999412
0.999204 1 1 0.999204
0.999278 1 1 0.999278
0.999422 1 1 0.999422
0.999543 1 1 0.999543
0.999728 1 1 0.999728
0.999968 1 1 0.999968
0.99997 1 1 0.99997
1 1 1 1
0.999973 1 1 0.999973
1 1 1 1
1 1 1 1
1 1 1 1
1 1 1 1
1 1 1 1
0.999981 1 1 0.999981
1 1 1 1
1 1 1 1
1 1 1 1
1 1 1 1
1 1 1 1
1 1 1 1
1.01022 1.01164 1 0.998596
1.00996 1.01153 1 0.998449
1.01093 1.01263 1 0.998317
1.01117 1.01295 1 0.998243
1.01259 1.01432 1 0.998296
1.01312 1.01472 1 0.998419
1.01305 1.0145 1 0.998569
1.01383 1.01545 1 0.998398
1.01582 1.01746 0.99986 0.998528
1.00869 1.01384 0.996213 0.998698
1.01323 1.01499 1 0.998265
1.00928 1.01095 1 0.998349
1.00818 1.0097 1 0.998495
0.999108 1 1.00004 0.999072
0.999951 1 1.00124 0.99871
1.00045 1.00138 1.00078 0.998302
1.00869 1.00997 1 0.998727
1.00316 1.00462 1 0.99854
0.999085 1 1 0.999085
0.999067 1 1 0.999067
0.999123 1 1 0.999123
0.999946 1 1 0.999946
0.999636 1 1 0.999636
0.999351 1 1 0.999351
1.01283 1.01449 1 0.998366
0.999964 1 1 0.999964
0.999738 1 1 0.999738
1.00929 1.01116 0.999721 0.998436
1.01159 1.01314 0.99982 0.998652
0.999803 1 1.00083 0.998979
1.00171 1 1.0033 0.998418
1.00078 1.00168 1.00084 0.998263
1.00668 1.00794 1 0.99875
0.999679 1 1 0.999679
0.999405 1 1 0.999405
0.999072 1 1 0.999072
1.00074 1 1.00159 0.999155
0.998972 1 1 0.998972
0.999198 1 1 0.999198
1.01452 1.0164 0.999654 0.998502
1.01329 1.01522 0.999542 0.998552
1.01055 1.01307 0.998634 0.998875
1.00211 1.00358 1 0.998528
1.00127 1 1.00234 0.998933
1.00404 1.00034 1.00547 0.998239
0.999755 1 1 0.999755
0.999713 1 1 0.999713
0.999567 1 1 0.999567
0.999409 1 1 0.999409
0.99926 1 1 0.99926
0.999033 1 1 0.999033
1.00311 1 1.00422 0.998894
0.999174 1 1 0.999174
0.999412 1 1 0.999412
0.999161 1 1 0.999161
1.01289 1.01421 1 0.998696
1.00734 1.00864 1 0.998712
0.998946 1 1 0.998946
1.0029 1 1.00404 0.998871
1.00225 1.00382 1.00004 0.998404
1.00161 1.00005 1.00326 0.998307
0.999284 1 1 0.999284
1.01398 1.01681 0.998542 0.998672
0.999126 1 1.00013 0.999001
1.00126 1 1.00259 0.998673
1.01441 1.01593 0.99973 0.998771
1.00651 1.00811 1 0.998406