# vtk DataFile Version 2.0
Wound Healing Simulation
ASCII
DATASET UNSTRUCTURED_GRID
POINTS 3012 float
69.9759 18.75 4
67.2507 60.3285 4
69.976 18.75 2
73.0099 25.446 4
71.1327 20.9142 4
68.6801 16.6661 4
67.8257 19.9261 3.98298
67.2507 60.3286 2
71.1327 54.0858 4
68.6801 58.3339 4
65.6939 62.2254 4
65.3123 59.0014 3.98257
74.6784 42.3946 4
73.7221 47.2057 4
69.9759 18.75 0
73.0099 25.446 2
68.6801 16.6661 2
71.1327 20.9142 2
67.8262 19.929 2
74.6792 32.6053 4
73.7222 27.7943 4
72.1454 23.1494 4
70.6143 26.2209 3.98272
68.8859 21.958 3.98347
67.2507 14.6715 4
66.6371 17.972 3.98204
65.7969 21.0255 3.97397
67.2507 60.3285 0
71.1327 54.0858 2
68.6801 58.3339 2
65.694 62.2255 2
65.3134 58.9981 2
72.1454 51.8506 4
69.9759 56.25 4
68.8365 53.113 3.98252
64.0165 64.0165 4
66.6107 57.1338 3.98254
63.8859 60.7663 3.98473
63.4999 57.7707 3.97453
60.3285 67.2507 4
74.6792 42.3947 2
73.7222 47.2057 2
74.9194 39.9526 4
74.2788 44.8158 4
72.1683 42.0856 3.98159
73.0099 49.554 4
71.2494 46.5981 3.98167
73.0099 25.446 0
71.1327 20.9142 0
68.6801 16.6661 0
67.8257 19.9261 0.0170214
74.6792 32.6053 2
73.7222 27.7943 2
67.2508 14.6715 2
72.1455 23.1494 2
70.6144 26.2213 2
66.6378 17.9754 2
68.8862 21.96 2
65.7963 21.026 2
74.9197 35.0474 4
74.2794 30.1841 4
72.185 32.9432 3.98197
71.2784 28.4312 3.98212
69.8158 24.0596 3.98329
68.3468 26.9512 3.97247
66.7624 22.9332 3.97332
65.694 12.7746 4
65.3238 16.1034 3.983
64.713 19.196 3.97397
63.885 22.0368 3.96979
71.1327 54.0858 0
65.6939 62.2254 0
68.6801 58.3339 0
65.3123 59.0014 0.0174315
72.1455 51.8506 2
69.9759 56.25 2
68.8367 53.1111 2
64.0165 64.0165 2
66.6115 57.1304 2
63.8875 60.7638 2
63.4995 57.7709 2
62.2254 65.694 4
58.8949 65.4143 3.99138
69.7691 50.9889 3.98244
67.7838 55.1673 3.98243
66.6491 52.209 3.9723
62.3364 62.4278 3.98754
64.6603 56.0309 3.97417
62.2026 59.4036 3.97623
61.8203 56.6778 3.96971
58.3339 68.6801 4
60.3285 67.2508 2
73.7221 47.2057 0
74.6784 42.3946 0
74.9197 39.9526 2
74.2794 44.8159 2
72.168 42.0856 2
73.0099 49.554 2
71.2494 46.5979 2
75 37.5 4
72.4055 39.8022 3.98184
71.7827 44.3529 3.98173
69.8038 41.7894 3.97156
70.5753 48.8136 3.98202
68.9121 46.0146 3.97146
74.6792 32.6053 0
73.7222 27.7943 0
67.2507 14.6715 0
72.1454 23.1494 0
70.6143 26.2209 0.0172751
68.8859 21.958 0.0165259
66.6371 17.972 0.0179592
65.7969 21.0255 0.0260348
74.9197 35.0474 2
74.2794 30.1841 2
72.1846 32.9434 2
71.2783 28.4316 2
65.694 12.7745 2
65.3251 16.1064 2
69.8159 24.0606 2
68.3468 26.9514 2
64.7124 19.1962 2
66.762 22.9337 2
63.8844 22.0369 2
72.4134 35.2241 3.98194
71.804 30.6762 3.98206
69.8399 33.268 3.97201
68.966 29.0379 3.97217
67.6112 24.9118 3.97281
66.1932 27.6348 3.96885
64.0165 10.9835 4
64.7549 23.8308 3.96945
63.8905 14.3268 3.98579
63.5126 17.4483 3.97501
62.9038 20.3236 3.96977
62.0884 22.9467 3.96828
60.6842 11.0976 3.98842
57.6123 11.4482 3.9811
72.1454 51.8506 0
69.9759 56.25 0
68.8365 53.113 0.0174802
64.0165 64.0165 0
63.8859 60.7663 0.015274
66.6107 57.1338 0.0174602
63.4999 57.7707 0.0254691
62.2255 65.694 2
58.8958 65.414 2
69.7691 50.9879 2
67.7842 55.1644 2
66.6487 52.2084 2
62.3379 62.4262 2
64.6598 56.0308 2
62.2025 59.4045 2
61.8197 56.6785 2
60.6691 63.9772 3.98955
57.0258 66.7349 3.99207
57.5582 63.6919 3.98367
67.5073 50.1766 3.97171
65.7014 54.1728 3.97288
64.5357 51.3839 3.96819
60.7731 60.9375 3.97922
62.8174 55.0651 3.9699
60.6563 58.1562 3.9707
60.3222 55.7786 3.96936
56.25 69.9759 4
58.3339 68.6801 2
60.3285 67.2507 0
58.9214 9.65587 3.98946
62.2254 9.30607 4
73.0099 49.554 0
74.2788 44.8158 0
71.2494 46.5981 0.0183299
72.1683 42.0856 0.018411
74.9194 39.9526 0
75 37.5 2
72.4054 39.8024 2
71.7826 44.3527 2
69.8035 41.7892 2
70.5753 48.8132 2
68.912 46.0142 2
72.4889 37.512 3.98171
70.041 39.6571 3.97154
69.4302 43.9073 3.97152
67.5961 41.4968 3.96873
68.2657 48.107 3.9715
66.7084 45.4389 3.96829
74.9197 35.0474 0
74.2794 30.1841 0
72.185 32.9432 0.0180311
71.2784 28.4312 0.0178787
65.694 12.7746 0
65.3238 16.1034 0.016999
69.8158 24.0596 0.0167058
68.3468 26.9512 0.0275251
66.7624 22.9332 0.0266806
64.713 19.196 0.026031
63.885 22.0368 0.030208
72.4133 35.2241 2
71.804 30.6765 2
69.8395 33.2683 2
68.966 29.0381 2
64.0165 10.9835 2
63.892 14.3291 2
63.5123 17.4479 2
67.611 24.9122 2
66.1931 27.6349 2
62.9032 20.3235 2
64.7544 23.8308 2
62.0878 22.9468 2
60.6856 11.099 2
57.6126 11.4474 2
70.0577 35.3916 3.97181
69.4669 31.1492 3.97188
67.6544 33.5908 3.96898
66.7709 29.6229 3.96874
65.5225 25.6996 3.9691
64.1363 28.2578 3.96921
62.342 12.6548 3.9874
62.852 24.64 3.96858
62.1993 15.7854 3.97833
61.81 18.6895 3.96896
61.2112 21.347 3.96746
60.4106 23.7349 3.96851
59.2464 12.7798 3.97978
55.8744 10.2342 3.98303
56.4048 13.117 3.9772
69.7691 50.9889 0.017558
62.2254 65.694 0
58.8949 65.4143 0.00861652
67.7838 55.1673 0.0175694
66.6491 52.209 0.0277039
62.3364 62.4278 0.012457
62.2026 59.4036 0.0237714
64.6603 56.0309 0.0258327
61.8203 56.6778 0.0302884
60.6703 63.9763 2
57.0264 66.7348 2
57.5584 63.6933 2
67.507 50.1761 2
65.7009 54.1723 2
64.5352 51.3838 2
60.7732 60.9389 2
62.8169 55.0657 2
60.6561 58.1572 2
60.3219 55.7786 2
55.0714 67.9319 3.99244
59.2193 62.3659 3.98068
55.8052 64.9102 3.98653
56.3265 62.089 3.97906
65.3301 49.4071 3.96806
63.7033 53.2904 3.96848
62.4314 50.647 3.96733
59.3324 59.5548 3.97495
61.0709 54.3032 3.96896
59.2844 57.0034 3.9683
59.2337 55.1724 3.97016
48.1031 68.5785 3.98827
50.9491 69.9315 3.99266
54.0858 71.1327 4
56.25 69.976 2
58.3339 68.6801 0
57.0588 8.33585 3.9903
60.3285 7.74928 4
58.9227 9.65678 2
62.2255 9.30602 2
70.5753 48.8136 0.0179776
71.7827 44.3529 0.0182722
68.9121 46.0146 0.0285415
69.8038 41.7894 0.0284423
72.4055 39.8022 0.0181551
75 37.5 0
72.4886 37.5121 2
70.0409 39.657 2
69.4301 43.907 2
67.5959 41.4966 2
68.2657 48.1065 2
66.7083 45.4387 2
70.1291 37.5213 3.97179
67.8334 39.5118 3.96884
67.2223 43.469 3.96847
65.5347 41.2073 3.97019
66.0672 47.417 3.96818
64.6349 44.8444 3.96912
72.4134 35.2241 0.0180553
71.804 30.6762 0.0179387
69.8399 33.268 0.0279947
68.966 29.0379 0.0278255
64.0165 10.9835 0
63.8905 14.3268 0.0142075
63.5126 17.4483 0.0249853
67.6112 24.9118 0.0271908
66.1932 27.6348 0.0311522
64.7549 23.8308 0.0305466
62.9038 20.3236 0.0302269
62.0884 22.9467 0.0317212
60.6842 11.0976 0.011578
57.6123 11.4482 0.0188993
70.0577 35.3918 2
69.4668 31.1494 2
67.6541 33.5909 2
66.7709 29.623 2
62.3434 12.6567 2
62.199 15.7847 2
61.8097 18.6888 2
65.5223 25.6997 2
64.1358 28.2579 2
61.2106 21.347 2
62.8514 24.6401 2
60.4106 23.7351 2
59.2465 12.7792 2
56.4046 13.116 2
55.8746 10.2333 2
67.8696 35.5473 3.96906
67.264 31.6224 3.96878
65.683 33.928 3.97035
64.6503 30.1941 3.96932
63.5305 26.4168 3.96893
62.2274 28.7836 3.97224
60.7757 14.2242 3.97967
61.0273 25.3447 3.97001
60.6109 17.131 3.97339
60.2131 19.8247 3.96529
59.6431 22.2675 3.96595
58.95 24.3315 3.97045
54.0376 9.13655 3.98447
57.9099 14.3352 3.97811
54.7865 12.0154 3.97873
55.3111 14.6531 3.9758
67.5073 50.1766 0.0282943
57.0258 66.7349 0.00792537
60.6691 63.9772 0.010452
57.5582 63.6919 0.0163346
65.7014 54.1728 0.0271162
64.5357 51.3839 0.0318083
60.7731 60.9375 0.0207828
60.6563 58.1562 0.0292965
62.8174 55.0651 0.0300976
60.3222 55.7786 0.0306372
55.0719 67.9319 2
59.2194 62.3672 2
55.8051 64.9113 2
56.3265 62.0904 2
65.3299 49.407 2
63.7027 53.2904 2
62.4319 50.647 2
59.3324 59.5563 2
61.0707 54.3032 2
59.2845 57.0031 2
59.2334 55.1722 2
53.0433 68.9997 3.99256
53.9676 66.013 3.98758
57.88 60.8684 3.9776
54.684 63.2072 3.98234
55.2101 60.6129 3.97685
63.1786 48.656 3.96793
61.7345 52.5702 3.96715
60.2392 50.0072 3.9686
58.0148 58.2561 3.97112
59.3172 53.9366 3.96791
58.1171 55.7979 3.966
50.1099 67.8566 3.98816
47.4635 66.5806 3.98541
46.0567 69.1577 3.9883
48.1031 68.5791 2
48.8032 70.7228 3.99276
50.9495 69.9316 2
51.8506 72.1454 4
54.0858 71.1327 2
56.25 69.9759 0
55.1034 7.14035 3.99114
58.3339 6.31992 4
57.0598 8.33629 2
60.3286 7.74926 2
58.9214 9.65587 0.0105356
62.2254 9.30607 0
68.2657 48.107 0.0285041
69.4302 43.9073 0.0284775
66.7084 45.4389 0.0317132
67.5961 41.4968 0.0312738
70.041 39.6571 0.0284632
72.4889 37.512 0.018289
70.1289 37.5212 2
67.8334 39.5117 2
67.2222 43.4689 2
65.5342 41.2072 2
66.0672 47.4168 2
64.6344 44.8443 2
67.9299 37.5216 3.96907
65.7668 39.3686 3.97046
65.1588 43.0221 3.96973
63.7009 40.9252 3.973
63.9458 46.7119 3.96848
62.7633 44.2089 3.97257
70.0577 35.3916 0.0281916
69.4669 31.1492 0.0281159
67.6544 33.5908 0.0310242
66.7709 29.6229 0.0312643
62.342 12.6548 0.0126024
62.1993 15.7854 0.0216732
61.81 18.6895 0.0310409
65.5225 25.6996 0.0308964
64.1363 28.2578 0.0307913
62.852 24.64 0.0314187
61.2112 21.347 0.0325378
60.4106 23.7349 0.0314875
59.2464 12.7798 0.0202191
56.4048 13.117 0.0227974
55.8744 10.2342 0.0169675
67.8695 35.5473 2
67.2639 31.6225 2
65.6828 33.928 2
64.6498 30.1941 2
60.7756 14.2236 2
60.6106 17.1298 2
60.2131 19.8243 2
63.5302 26.4168 2
62.2265 28.7838 2
59.6449 22.2674 2
61.0268 25.3449 2
58.9494 24.332 2
57.9093 14.3343 2
55.3106 14.6523 2
54.0378 9.13576 2
54.7864 12.0142 2
65.8569 35.6668 3.97042
65.1683 32.1559 3.96973
64.2446 34.2507 3.97283
62.5472 30.641 3.97271
61.6219 27.0793 3.97083
60.798 29.1485 3.97548
59.31 15.6715 3.9771
59.2886 25.8081 3.97326
59.1173 18.3632 3.96993
58.7214 20.8652 3.96447
58.255 23.105 3.96641
57.9245 24.679 3.97227
52.1123 8.1544 3.98568
53.0581 11.0201 3.98053
56.6748 15.7483 3.97711
53.8085 13.6875 3.97638
54.3735 16.0085 3.97699
55.0714 67.9319 0.00755845
65.3301 49.4071 0.0319366
55.8052 64.9102 0.013474
59.2193 62.3659 0.0193204
56.3265 62.089 0.0209425
63.7033 53.2904 0.0315217
62.4314 50.647 0.032674
59.3324 59.5548 0.0250544
59.2844 57.0034 0.0317045
61.0709 54.3032 0.0310446
59.2337 55.1724 0.0298444
53.0437 68.9998 2
53.9675 66.0137 2
57.8798 60.8696 2
54.6839 63.2084 2
55.2101 60.6145 2
63.1783 48.6559 2
61.7348 52.5702 2
60.239 50.0069 2
58.0146 58.258 2
59.3173 53.9363 2
58.1167 55.7973 2
52.071 66.9996 3.98799
52.9538 64.2186 3.98435
56.6462 59.4851 3.97548
53.6807 61.6209 3.9797
[...]
POINT_DATA 3012
SCALARS rho_c_phif_kappa float 4
LOOKUP_TABLE default
1000 0 1.00119 0.256966
1000 0 1.00103 0.257249
1000 0 1.00119 0.256771
1000 0 1.00119 0.257131
1000 0 1.00119 0.256951
1000 0 1.00119 0.257035
1007.49 8.47469e-09 1.00132 0.25643
1000 0 1.00103 0.257273
1000 0 1.00103 0.257127
1000 0 1.00103 0.257105
1000 0 1.00119 0.256687
1007.48 8.33706e-09 1.00141 0.256368
1000 0 1.00119 0.257216
1000 0 1.00119 0.257454
1000 0 1.00119 0.256564
1000 0 1.00119 0.257174
1000 0 1.00119 0.256754
1000 0 1.00119 0.256848
1007.5 8.48968e-09 1.00132 0.256553
1000 0 1.00103 0.2574
1000 0 1.00119 0.257233
1000 0 1.00119 0.257015
1007.45 8.54517e-09 1.00132 0.256739
1007.47 8.50461e-09 1.00132 0.256522
1000 0 1.00119 0.257072
1007.51 8.44429e-09 1.00133 0.256312
1007.5 8.71597e-09 1.00145 0.255789
1000 0 1.00103 0.257335
1000 0 1.00111 0.256987
1000 0 1.00111 0.256923
1000 0 1.00103 0.257376
1007.5 8.35357e-09 1.00141 0.256374
1000 0 1.00119 0.256864
1000 0 1.00119 0.256604
1007.48 8.51479e-09 1.00133 0.256493
1000 0 1.00103 0.257254
1007.47 8.39246e-09 1.00133 0.25655
1007.51 8.30688e-09 1.00142 0.256526
1007.53 8.74551e-09 1.00144 0.255902
1000 0 1.00103 0.257582
1000 0 1.00103 0.257402
1000 0 1.00111 0.257392
1000 0 1.00103 0.257416
1000 0 1.00119 0.257521
1007.4 8.55358e-09 1.00141 0.256852
1000 0 1.00103 0.257504
1007.45 8.57536e-09 1.00133 0.256722
1000 0 1.00119 0.25727
1000 0 1.00119 0.256738
1000 0 1.00119 0.256483
1007.49 8.47469e-09 1.00132 0.256676
1000 0 1.00111 0.257536
1000 0 1.00119 0.257307
1000 0 1.00119 0.256765
1000 0 1.00119 0.256996
1007.37 8.55732e-09 1.00132 0.256718
1007.54 8.46079e-09 1.00133 0.256484
1007.45 8.51752e-09 1.00132 0.256593
1007.5 8.71242e-09 1.00145 0.255702
1000 0 1.00103 0.257433
1000 0 1.00119 0.257288
1007.39 8.53868e-09 1.00133 0.256956
1007.43 8.55215e-09 1.00132 0.256828
1007.46 8.52942e-09 1.00132 0.256619
1007.47 8.67978e-09 1.00144 0.25567
1007.49 8.70173e-09 1.00144 0.255662
1000 0 1.00119 0.257046
1007.54 8.41711e-09 1.00133 0.256247
1007.51 8.73284e-09 1.00145 0.255821
1007.34 8.51981e-09 1.00143 0.254459
1000 0 1.00103 0.257115
1000 0 1.00103 0.2574
1000 0 1.00103 0.257218
1007.48 8.33706e-09 1.00141 0.256388
1000 0 1.00103 0.25716
1000 0 1.00103 0.25709
1007.45 8.52832e-09 1.00141 0.256493
1000 0 1.00111 0.257005
1007.49 8.40885e-09 1.00141 0.256437
1007.52 8.32055e-09 1.00138 0.256559
1007.52 8.74159e-09 1.00144 0.255939
1000 0 1.00103 0.257512
1007.69 8.32017e-09 1.00142 0.2567
1007.48 8.55413e-09 1.00141 0.256641
1007.47 8.45785e-09 1.00141 0.256595
1007.48 8.69225e-09 1.00143 0.255527
1007.56 8.29435e-09 1.00134 0.256664
1007.52 8.73225e-09 1.00144 0.255777
1007.53 8.75643e-09 1.00144 0.256044
1007.37 8.56367e-09 1.00143 0.255106
1000 0 1.00103 0.257608
1000 0 1.00103 0.257568
1000 0 1.00103 0.25731
1000 0 1.00103 0.257414
1000 0 1.00103 0.257419
1000 0 1.00111 0.257459
1007.3 8.56742e-09 1.00137 0.256795
1000 0 1.00111 0.257282
1007.36 8.58878e-09 1.00137 0.256755
1000 0 1.00103 0.257435
1007.38 8.53767e-09 1.0014 0.256822
1007.42 8.56706e-09 1.00133 0.256753
1007.46 8.668e-09 1.00143 0.255565
1007.47 8.57338e-09 1.00133 0.256606
1007.47 8.67315e-09 1.00143 0.255676
1000 0 1.00119 0.257206
1000 0 1.00119 0.257438
1000 0 1.00119 0.256482
1000 0 1.00119 0.256989
1007.45 8.54517e-09 1.00132 0.256677
1007.47 8.50461e-09 1.00132 0.256663
1007.51 8.44429e-09 1.00133 0.25665
1007.5 8.71597e-09 1.00145 0.255624
1000 0 1.00103 0.257406
1000 0 1.00119 0.257387
1007.31 8.55289e-09 1.00136 0.256802
1007.34 8.56528e-09 1.00132 0.256804
1000 0 1.00111 0.257021
1007.56 8.43192e-09 1.00133 0.256489
1007.4 8.54132e-09 1.00132 0.256633
1007.48 8.67702e-09 1.00144 0.255619
1007.51 8.72901e-09 1.00145 0.255715
1007.49 8.69855e-09 1.00144 0.255645
1007.34 8.52039e-09 1.00143 0.254454
1007.36 8.53128e-09 1.0014 0.256897
1007.41 8.54919e-09 1.00132 0.256863
1007.46 8.67126e-09 1.00144 0.25563
1007.47 8.67436e-09 1.00144 0.255654
1007.48 8.68899e-09 1.00144 0.255603
1007.31 8.47801e-09 1.00142 0.254545
1000 0 1.00103 0.257408
1007.33 8.50305e-09 1.00142 0.254394
1007.58 8.39123e-09 1.00142 0.256346
1007.52 8.75053e-09 1.00144 0.255872
1007.36 8.53916e-09 1.00143 0.254558
1007.34 8.5103e-09 1.00142 0.253517
1007.67 8.36765e-09 1.00142 0.256716
1007.51 8.76045e-09 1.00144 0.257037
1000 0 1.00103 0.25716
1000 0 1.00103 0.257147
1007.48 8.51479e-09 1.00141 0.256524
1000 0 1.00103 0.257452
1007.51 8.30688e-09 1.00142 0.256419
1007.47 8.39246e-09 1.00141 0.256439
1007.53 8.74551e-09 1.00144 0.255969
1000 0 1.00103 0.257524
1007.68 8.32627e-09 1.00142 0.256739
1007.43 8.56644e-09 1.00137 0.25662
1007.48 8.4731e-09 1.00137 0.256565
1007.49 8.68908e-09 1.00143 0.255531
1007.56 8.30444e-09 1.00142 0.256485
1007.51 8.72828e-09 1.00144 0.255819
1007.53 8.75311e-09 1.00144 0.256077
1007.37 8.56459e-09 1.00143 0.255056
1007.62 8.30264e-09 1.00142 0.256588
1007.75 8.33839e-09 1.00143 0.256716
1007.52 8.76193e-09 1.00144 0.257029
1007.47 8.67754e-09 1.00143 0.255564
1007.5 8.71301e-09 1.00144 0.255589
1007.32 8.50036e-09 1.00142 0.254304
1007.53 8.76131e-09 1.00144 0.256488
1007.36 8.54486e-09 1.00143 0.254714
1007.38 8.58015e-09 1.00143 0.25525
1007.37 8.55307e-09 1.00143 0.254012
1000 0 1.00103 0.25762
1000 0 1.00103 0.257588
1000 0 1.00103 0.257551
1007.73 8.37416e-09 1.00143 0.256781
1000 0 1.00103 0.257475
1000 0 1.00103 0.257251
1000 0 1.00103 0.257365
1007.45 8.57536e-09 1.00141 0.256803
1007.4 8.55358e-09 1.00141 0.256878
1000 0 1.00103 0.257435
1000 0 1.00103 0.257425
1007.35 8.55162e-09 1.0014 0.256843
1007.41 8.58038e-09 1.00137 0.256796
1007.48 8.66492e-09 1.00143 0.255566
1007.39 8.5859e-09 1.00141 0.256699
1007.48 8.67016e-09 1.00143 0.255665
1007.38 8.52715e-09 1.0014 0.256853
1007.46 8.6637e-09 1.00143 0.255502
1007.47 8.67191e-09 1.00143 0.255644
1007.3 8.4663e-09 1.00142 0.254569
1007.47 8.67375e-09 1.00143 0.255635
1007.3 8.47093e-09 1.00142 0.254579
1000 0 1.00103 0.257405
1000 0 1.00119 0.257513
1007.39 8.53868e-09 1.0014 0.256877
1007.43 8.55215e-09 1.00132 0.256756
1000 0 1.00103 0.257172
1007.54 8.41711e-09 1.00134 0.25673
1007.46 8.52942e-09 1.00132 0.256641
1007.47 8.67978e-09 1.00144 0.255563
1007.49 8.70173e-09 1.00144 0.255635
1007.51 8.73284e-09 1.00145 0.255607
1007.34 8.51981e-09 1.00143 0.254446
1007.32 8.54536e-09 1.0014 0.256868
1007.38 8.56259e-09 1.00132 0.256837
1007.48 8.66823e-09 1.00143 0.255607
1007.48 8.67149e-09 1.00144 0.255667
1000 0 1.00103 0.257417
1007.58 8.40325e-09 1.00138 0.256489
1007.52 8.74693e-09 1.00145 0.255871
1007.49 8.68613e-09 1.00144 0.255574
1007.31 8.47822e-09 1.00142 0.25447
1007.36 8.54029e-09 1.00143 0.254535
1007.33 8.5034e-09 1.00142 0.254423
1007.34 8.51062e-09 1.00142 0.253522
1007.66 8.37698e-09 1.00142 0.256635
1007.51 8.75801e-09 1.00144 0.257012
1007.46 8.66624e-09 1.00143 0.255535
1007.47 8.67165e-09 1.00144 0.25568
1007.3 8.46822e-09 1.00142 0.254702
1007.3 8.47205e-09 1.00142 0.254457
1007.32 8.48845e-09 1.00142 0.254396
1007.31 8.47675e-09 1.00142 0.25359
1007.62 8.37203e-09 1.00142 0.256554
1007.32 8.49689e-09 1.00142 0.253417
1007.53 8.76074e-09 1.00144 0.256307
1007.37 8.56143e-09 1.00143 0.254891
1007.35 8.5291e-09 1.00143 0.253634
1007.33 8.50477e-09 1.00142 0.252549
1007.52 8.75975e-09 1.00144 0.256836
1007.5 8.75953e-09 1.00144 0.257285
1007.39 8.5901e-09 1.00144 0.256512
1007.48 8.55413e-09 1.00141 0.256631
1000 0 1.00103 0.257517
1007.69 8.32017e-09 1.00142 0.256778
1007.47 8.45785e-09 1.00141 0.256458
1007.48 8.69225e-09 1.00143 0.255539
1007.56 8.29435e-09 1.00142 0.256594
1007.53 8.75643e-09 1.00144 0.256112
1007.52 8.73225e-09 1.00144 0.255853
1007.37 8.56367e-09 1.00143 0.255012
1007.62 8.31051e-09 1.00142 0.256665
1007.74 8.34361e-09 1.00143 0.256709
1007.51 8.75949e-09 1.00144 0.257083
1007.48 8.67463e-09 1.00143 0.255555
1007.5 8.7095e-09 1.00144 0.255614
1007.32 8.50093e-09 1.00142 0.254307
1007.53 8.75811e-09 1.00144 0.256496
1007.36 8.54566e-09 1.00143 0.254744
1007.39 8.58091e-09 1.00143 0.255258
1007.37 8.55322e-09 1.00143 0.253909
1007.81 8.35816e-09 1.00143 0.256657
1007.52 8.76041e-09 1.00144 0.256852
1007.51 8.76125e-09 1.00144 0.257261
1007.39 8.5977e-09 1.00144 0.256608
1007.31 8.49237e-09 1.00142 0.254354
1007.34 8.5165e-09 1.00143 0.254397
1007.32 8.49264e-09 1.00142 0.253158
1007.39 8.58998e-09 1.00144 0.25584
1007.36 8.53459e-09 1.00143 0.253496
1007.39 8.57435e-09 1.00143 0.254029
1007.37 8.54891e-09 1.00143 0.252973
1007.46 8.75633e-09 1.00144 0.257288
1007.92 8.39793e-09 1.00143 0.256542
1000 0 1.00103 0.257638
1000 0 1.00103 0.257609
1000 0 1.00103 0.257576
1007.79 8.39324e-09 1.00143 0.256767
1000 0 1.00103 0.257528
1007.72 8.38198e-09 1.00143 0.256735
1000 0 1.00103 0.257474
1007.47 8.57338e-09 1.00141 0.256725
1007.42 8.56706e-09 1.00141 0.256866
1007.47 8.67315e-09 1.00143 0.255657
1007.46 8.668e-09 1.00143 0.25557
1007.38 8.53767e-09 1.0014 0.256869
1000 0 1.00103 0.257437
1007.24 8.54218e-09 1.0014 0.256857
1007.46 8.66067e-09 1.00143 0.255504
1007.47 8.66891e-09 1.00143 0.255644
1007.3 8.46651e-09 1.00142 0.254564
1007.48 8.67089e-09 1.00143 0.25562
1007.3 8.47118e-09 1.00142 0.254576
1007.46 8.66286e-09 1.00143 0.2555
1007.3 8.46738e-09 1.00142 0.254557
1007.3 8.46922e-09 1.00142 0.254592
1007.3 8.46978e-09 1.00142 0.253648
1007.31 8.47657e-09 1.00142 0.254482
1007.3 8.48066e-09 1.00142 0.25364
1007.36 8.53128e-09 1.0014 0.256836
1007.41 8.54919e-09 1.00132 0.256797
1007.46 8.67126e-09 1.00143 0.255582
1007.47 8.67436e-09 1.00144 0.255674
1000 0 1.00103 0.257425
1007.58 8.39123e-09 1.00134 0.256537
1007.52 8.75053e-09 1.00145 0.255855
1007.48 8.68899e-09 1.00144 0.255545
1007.31 8.47801e-09 1.00142 0.254393
1007.33 8.50305e-09 1.00143 0.254451
1007.36 8.53916e-09 1.00143 0.254509
1007.34 8.5103e-09 1.00142 0.253526
1007.67 8.36765e-09 1.00142 0.256564
1007.51 8.76045e-09 1.00144 0.25699
1007.47 8.6632e-09 1.00143 0.255524
1007.47 8.66893e-09 1.00144 0.25566
1007.3 8.46847e-09 1.00142 0.254666
1007.3 8.47232e-09 1.00142 0.254522
1007.61 8.38248e-09 1.00142 0.256485
1007.52 8.7573e-09 1.00144 0.256262
1007.37 8.56236e-09 1.00143 0.254952
1007.32 8.48871e-09 1.00142 0.254417
1007.31 8.47682e-09 1.00142 0.253519
1007.35 8.52984e-09 1.00143 0.253559
1007.32 8.49707e-09 1.00142 0.253411
1007.33 8.50511e-09 1.00142 0.252489
1007.51 8.75715e-09 1.00144 0.256856
1007.39 8.59067e-09 1.00144 0.256548
1007.5 8.75715e-09 1.00144 0.257224
1007.3 8.4695e-09 1.00142 0.254649
1007.3 8.46943e-09 1.00142 0.254624
1007.3 8.4659e-09 1.00142 0.253908
1007.3 8.46868e-09 1.00142 0.253484
1007.31 8.48595e-09 1.00142 0.25336
1007.3 8.46838e-09 1.00142 0.25254
1007.52 8.761e-09 1.00144 0.256637
1007.32 8.48862e-09 1.00142 0.252244
1007.39 8.57828e-09 1.00143 0.255696
1007.37 8.55613e-09 1.00143 0.253722
1007.35 8.51864e-09 1.00143 0.252554
1007.32 8.49429e-09 1.00142 0.251268
1007.48 8.757e-09 1.00144 0.257447
1007.39 8.58767e-09 1.00143 0.256565
1007.39 8.59137e-09 1.00144 0.256679
1007.41 8.58698e-09 1.00144 0.256072
1007.47 8.67754e-09 1.00143 0.255549
1007.75 8.33839e-09 1.00143 0.256679
1007.62 8.30264e-09 1.00142 0.256761
1007.52 8.76193e-09 1.00144 0.257145
1007.5 8.71301e-09 1.00144 0.255639
1007.32 8.50036e-09 1.00142 0.254306
1007.53 8.76131e-09 1.00144 0.256497
1007.38 8.58015e-09 1.00143 0.25525
1007.36 8.54486e-09 1.00143 0.254777
1007.37 8.55307e-09 1.00143 0.253799
1007.8 8.36316e-09 1.00143 0.256628
1007.52 8.75784e-09 1.00144 0.256864
1007.51 8.759e-09 1.00144 0.257333
1007.39 8.59768e-09 1.00144 0.256588
1007.31 8.49253e-09 1.00142 0.254355
1007.34 8.51739e-09 1.00143 0.254397
1007.32 8.49267e-09 1.00142 0.253168
1007.39 8.59046e-09 1.00144 0.255846
1007.36 8.53511e-09 1.00143 0.253572
1007.39 8.57467e-09 1.00143 0.253958
1007.37 8.54915e-09 1.00143 0.253034
1007.87 8.37617e-09 1.00143 0.256591
1007.49 8.7593e-09 1.00144 0.257417
1007.39 8.59398e-09 1.00144 0.256384
1007.39 8.59718e-09 1.00144 0.256973
1007.41 8.59669e-09 1.00144 0.255856
1007.31 8.46626e-09 1.00142 0.253263
1007.34 8.53521e-09 1.00142 0.253176
1007.32 8.45239e-09 1.00142 0.251757
1007.4 8.59128e-09 1.00144 0.254602
1007.35 8.52655e-09 1.00143 0.252109
1007.38 8.56437e-09 1.00143 0.252777
1007.47 8.75691e-09 1.00144 0.257347
1007.39 8.59148e-09 1.00144 0.257731
1007.45 8.75521e-09 1.00144 0.257253
1007.46 8.75496e-09 1.00144 0.257297
1007.97 8.41954e-09 1.00135 0.256799
1007.92 8.40261e-09 1.00139 0.256732
1000 0 1.0012 0.25708
1000 0 1.00103 0.257629
1000 0 1.00103 0.257601
1007.85 8.42001e-09 1.00143 0.256734
1000 0 1.00103 0.257563
1007.78 8.40001e-09 1.00143 0.25676
1000 0 1.00103 0.257531
1007.73 8.37416e-09 1.00143 0.256689
1000 0 1.00103 0.257472
1007.47 8.67375e-09 1.00143 0.255606
1007.47 8.67191e-09 1.00143 0.255642
1007.3 8.47093e-09 1.00142 0.254572
1007.3 8.4663e-09 1.00142 0.254559
1007.46 8.6637e-09 1.00143 0.255504
1007.38 8.52715e-09 1.0014 0.256839
1007.48 8.6596e-09 1.00143 0.255498
1007.3 8.46753e-09 1.00142 0.254554
1007.3 8.46946e-09 1.00142 0.254587
1007.3 8.46974e-09 1.00142 0.253562
1007.3 8.47686e-09 1.00142 0.254474
1007.3 8.48065e-09 1.00142 0.253649
1007.3 8.47069e-09 1.00142 0.254571
1007.29 8.46156e-09 1.00142 0.253731
1007.3 8.47271e-09 1.00142 0.253545
1007.29 8.42096e-09 1.00142 0.252773
1007.31 8.4786e-09 1.00142 0.253562
1007.3 8.44016e-09 1.00142 0.25223
1007.46 8.66624e-09 1.00143 0.255517
1007.47 8.67165e-09 1.00144 0.25564
1007.3 8.46822e-09 1.00142 0.254632
1007.3 8.47205e-09 1.00142 0.254586
1007.62 8.37203e-09 1.00142 0.256417
1007.53 8.76074e-09 1.00144 0.256225
1007.37 8.56143e-09 1.00143 0.255019
1007.32 8.48845e-09 1.00142 0.254441
1007.31 8.47675e-09 1.00142 0.253446
1007.32 8.49689e-09 1.00142 0.253405
1007.35 8.5291e-09 1.00143 0.253486
1007.33 8.50477e-09 1.00142 0.252422
1007.52 8.75975e-09 1.00144 0.256869
1007.39 8.5901e-09 1.00143 0.256576
1007.5 8.75953e-09 1.00144 0.257171
1007.3 8.46969e-09 1.00142 0.254623
1007.3 8.46969e-09 1.00142 0.254597
1007.3 8.46579e-09 1.00142 0.253869
1007.3 8.46856e-09 1.00142 0.253515
1007.52 8.75771e-09 1.00144 0.256652
1007.39 8.57828e-09 1.00143 0.255692
1007.38 8.55737e-09 1.00143 0.253768
1007.31 8.48597e-09 1.00142 0.253413
1007.3 8.46815e-09 1.00142 0.25247
1007.35 8.51914e-09 1.00143 0.252506
1007.32 8.4886e-09 1.00142 0.25226
1007.32 8.49423e-09 1.00142 0.251184
1007.39 8.58794e-09 1.00143 0.256556
1007.41 8.58741e-09 1.00144 0.25607
1007.48 8.75496e-09 1.00144 0.257395
1007.39 8.59145e-09 1.00144 0.256721
1007.29 8.4497e-09 1.00142 0.253901
1007.3 8.47263e-09 1.00142 0.253745
1007.3 8.46646e-09 1.00142 0.253081
1007.3 8.47416e-09 1.00142 0.252073
1007.31 8.47447e-09 1.00142 0.252334
1007.3 8.47697e-09 1.00142 0.251776
1007.39 8.58407e-09 1.00143 0.256338
1007.31 8.48897e-09 1.00142 0.250857
1007.39 8.5811e-09 1.00143 0.254531
1007.37 8.54065e-09 1.00143 0.252608
1007.34 8.5016e-09 1.00142 0.251446
1007.32 8.50935e-09 1.00142 0.250386
1007.47 8.75425e-09 1.00144 0.257471
1007.39 8.59056e-09 1.00144 0.256999
1007.4 8.586e-09 1.00144 0.256122
1007.41 8.59289e-09 1.00144 0.256033
1007.41 8.59151e-09 1.00144 0.255885
1007.81 8.35816e-09 1.00143 0.256595
1007.31 8.49237e-09 1.00142 0.254356
1007.51 8.76125e-09 1.00144 0.257425
1007.52 8.76041e-09 1.00144 0.256863
1007.39 8.5977e-09 1.00144 0.256568
1007.34 8.5165e-09 1.00143 0.254394
1007.32 8.49264e-09 1.00142 0.253178
1007.39 8.58998e-09 1.00144 0.255863
1007.39 8.57435e-09 1.00143 0.253861
1007.36 8.53459e-09 1.00143 0.253651
1007.37 8.54891e-09 1.00143 0.253107
1007.86 8.38106e-09 1.00143 0.256568
1007.49 8.75749e-09 1.00144 0.257462
1007.39 8.59445e-09 1.00144 0.256394
1007.39 8.59678e-09 1.00144 0.256977
1007.41 8.59656e-09 1.00144 0.25582
1007.31 8.46731e-09 1.00142 0.253251
1007.34 8.53531e-09 1.00142 0.253171
1007.32 8.45329e-09 1.00142 0.251693
1007.4 8.59076e-09 1.00144 0.254646
1007.35 8.52606e-09 1.00143 0.252223
1007.38 8.56457e-09 1.00143 0.252823
1007.48 8.75798e-09 1.00144 0.257408
1007.39 8.59446e-09 1.00144 0.257372
1007.41 8.5953e-09 1.00144 0.255464
1007.42 8.60141e-09 1.00144 0.256132
1007.41 8.59613e-09 1.00144 0.255414
1007.3 8.40539e-09 1.00142 0.252401
1007.32 8.39038e-09 1.00142 0.251461
1007.32 8.64753e-09 1.00142 0.250032
1007.4 8.58388e-09 1.00143 0.253379
1007.34 8.43014e-09 1.00143 0.251517
1007.47 8.75546e-09 1.00144 0.257357
1007.39 8.59257e-09 1.00144 0.257684
1007.39 8.59143e-09 1.00144 0.257727
1007.42 8.59568e-09 1.00144 0.257285
1007.39 8.58987e-09 1.00144 0.25772
1007.44 8.75366e-09 1.00144 0.257245
1007.45 8.75391e-09 1.00144 0.257257
1008.02 8.44791e-09 1.00135 0.256777
1007.46 8.75633e-09 1.00144 0.257305
1007.97 8.42408e-09 1.00135 0.256872
1000 0 1.0012 0.257082
1007.92 8.39793e-09 1.00135 0.256857
1000 0 1.00111 0.257241
1000 0 1.00103 0.257623
1007.91 8.44808e-09 1.00143 0.256675
1007.85 8.42606e-09 1.00143 0.256737
1000 0 1.00103 0.257589
1000 0 1.00103 0.257572
1007.79 8.39324e-09 1.00143 0.256746
1000 0 1.00103 0.25753
1007.31 8.47657e-09 1.00142 0.254466
1007.3 8.46922e-09 1.00142 0.254585
1007.3 8.48066e-09 1.00142 0.253659
1007.3 8.46978e-09 1.00142 0.253474
1007.3 8.46738e-09 1.00142 0.25455
1007.46 8.66286e-09 1.00143 0.255492
1007.3 8.47095e-09 1.00142 0.254571
1007.29 8.4616e-09 1.00142 0.253782
1007.3 8.47255e-09 1.00142 0.25355
1007.29 8.42082e-09 1.00142 0.252633
1007.31 8.47845e-09 1.00142 0.253548
1007.3 8.43993e-09 1.00142 0.252211
1007.29 8.4588e-09 1.00142 0.253966
1007.29 8.36994e-09 1.00142 0.253128
1007.3 8.44572e-09 1.00142 0.252204
1007.32 8.64315e-09 1.00142 0.252002
1007.31 8.45985e-09 1.00142 0.252682
1007.32 8.54715e-09 1.00142 0.251149
1007.3 8.4695e-09 1.00142 0.254595
1007.3 8.46943e-09 1.00142 0.25457
1007.3 8.4659e-09 1.00142 0.253832
1007.3 8.46868e-09 1.00142 0.253548
1007.52 8.761e-09 1.00144 0.256664
1007.39 8.57828e-09 1.00143 0.255685
1007.37 8.55613e-09 1.00143 0.253814
1007.31 8.48595e-09 1.00142 0.253463
1007.3 8.46838e-09 1.00142 0.252401
1007.32 8.48862e-09 1.00142 0.252277
1007.35 8.51864e-09 1.00142 0.252458
1007.32 8.49429e-09 1.00142 0.251105
1007.39 8.58767e-09 1.00143 0.256554
1007.41 8.58698e-09 1.00144 0.256074
1007.48 8.757e-09 1.00144 0.257344
1007.39 8.59137e-09 1.00144 0.256766
1007.29 8.44984e-09 1.00142 0.253906
1007.3 8.47287e-09 1.00142 0.253737
1007.3 8.46687e-09 1.00142 0.253086
1007.3 8.47478e-09 1.00142 0.25217
1007.39 8.58417e-09 1.00143 0.256326
1007.4 8.58129e-09 1.00143 0.254636
1007.37 8.54147e-09 1.00143 0.252533
1007.31 8.475e-09 1.00142 0.25241
1007.3 8.47796e-09 1.00142 0.251713
1007.34 8.50188e-09 1.00142 0.251441
1007.31 8.48978e-09 1.00142 0.250869
1007.32 8.50991e-09 1.00142 0.250351
1007.4 8.58557e-09 1.00144 0.256119
1007.41 8.59153e-09 1.00144 0.255872
1007.41 8.59297e-09 1.00144 0.256024
1007.47 8.75254e-09 1.00144 0.257433
1007.39 8.59055e-09 1.00144 0.257035
1007.3 8.44205e-09 1.00142 0.253148
1007.29 8.40109e-09 1.00141 0.252504
1007.29 8.41942e-09 1.00141 0.25113
1007.29 8.46746e-09 1.00142 0.251182
1007.4 8.58831e-09 1.00143 0.255645
1007.3 8.48664e-09 1.00142 0.249133
1007.39 8.57002e-09 1.00143 0.253451
1007.35 8.47336e-09 1.00143 0.251315
1007.34 8.62939e-09 1.00142 0.250218
1007.46 8.75184e-09 1.00144 0.257426
1007.39 8.5894e-09 1.00144 0.257256
1007.42 8.5981e-09 1.00144 0.256332
1007.4 8.58557e-09 1.00144 0.2558
1007.41 8.598e-09 1.00144 0.255584
1007.4 8.58251e-09 1.00143 0.255676
1007.87 8.37617e-09 1.00143 0.256543
1007.49 8.7593e-09 1.00144 0.257505
1007.31 8.46626e-09 1.00142 0.253238
1007.39 8.59718e-09 1.00144 0.256978
1007.39 8.59398e-09 1.00144 0.256405
1007.41 8.59669e-09 1.00144 0.255782
1007.34 8.53521e-09 1.00142 0.253165
1007.32 8.45239e-09 1.00142 0.251638
1007.4 8.59128e-09 1.00144 0.254692
1007.38 8.56437e-09 1.00143 0.252854
1007.35 8.52655e-09 1.00143 0.25232
1007.48 8.75639e-09 1.00144 0.257425
1007.39 8.59412e-09 1.00144 0.257406
1007.41 8.59517e-09 1.00144 0.255474
1007.42 8.60079e-09 1.00144 0.256136
1007.41 8.59643e-09 1.00144 0.255354
1007.3 8.40069e-09 1.00142 0.252351
1007.32 8.3923e-09 1.00142 0.251484
1007.32 8.64365e-09 1.00142 0.249978
1007.4 8.58449e-09 1.00143 0.253325
1007.34 8.43271e-09 1.00143 0.251519