# vtk DataFile Version 2.0
Wound Healing Simulation
ASCII
DATASET UNSTRUCTURED_GRID
POINTS 3012 float
69.9759 18.75 4
67.2507 60.3285 4
69.976 18.75 2
73.0099 25.446 4
71.1327 20.9142 4
68.6801 16.6661 4
67.8242 19.9263 3.97947
67.2507 60.3286 2
71.1327 54.0858 4
68.6801 58.3339 4
65.6939 62.2254 4
65.3108 59.0005 3.97847
74.6784 42.3946 4
73.7221 47.2057 4
69.9759 18.75 0
73.0099 25.446 2
68.6801 16.6661 2
71.1327 20.9142 2
67.8248 19.9298 2
74.6792 32.6053 4
73.7222 27.7943 4
72.1454 23.1494 4
70.6131 26.2211 3.97909
68.8845 21.958 3.97991
67.2507 14.6715 4
66.6357 17.9725 3.97861
65.793 21.0276 3.96867
67.2507 60.3285 0
71.1327 54.0858 2
68.6801 58.3339 2
65.694 62.2255 2
65.3122 58.9961 2
72.1454 51.8506 4
69.9759 56.25 4
68.8351 53.113 3.9791
64.0165 64.0165 4
66.6094 57.1333 3.97905
63.8839 60.7647 3.9788
63.4964 57.7671 3.96928
60.3285 67.2507 4
74.6792 42.3947 2
73.7222 47.2057 2
74.9194 39.9526 4
74.2788 44.8158 4
72.1675 42.0856 3.97908
73.0099 49.554 4
71.2483 46.598 3.97848
73.0099 25.446 0
71.1327 20.9142 0
68.6801 16.6661 0
67.8242 19.9263 0.0205304
74.6792 32.6053 2
73.7222 27.7943 2
67.2508 14.6715 2
72.1455 23.1494 2
70.613 26.2216 2
66.6366 17.977 2
68.8847 21.9603 2
65.7923 21.0286 2
74.9197 35.0474 4
74.2794 30.1841 4
72.1841 32.9436 3.97937
71.2773 28.4316 3.97876
69.8144 24.0596 3.97968
68.3434 26.9527 3.96803
66.7587 22.9349 3.96832
65.694 12.7746 4
65.3219 16.1048 3.97786
64.7094 19.1986 3.96902
63.8645 22.045 3.96564
71.1327 54.0858 0
65.6939 62.2254 0
68.6801 58.3339 0
65.3108 59.0005 0.021528
72.1455 51.8506 2
69.9759 56.25 2
68.8353 53.1109 2
64.0165 64.0165 2
66.6103 57.1291 2
63.8858 60.7607 2
63.4956 57.7668 2
62.2254 65.694 4
58.8935 65.4136 3.98852
69.7677 50.9889 3.97883
67.7824 55.1671 3.9792
66.6455 52.2077 3.96775
62.3342 62.4263 3.98165
64.6568 56.0287 3.96906
62.1984 59.3964 3.96874
61.8143 56.6722 3.9653
58.3339 68.6801 4
60.3285 67.2508 2
73.7221 47.2057 0
74.6784 42.3946 0
74.9197 39.9526 2
74.2794 44.8159 2
72.1669 42.0855 2
73.0099 49.554 2
71.2481 46.5977 2
75 37.5 4
72.4048 39.8023 3.97979
71.7817 44.3529 3.97905
69.8013 41.7898 3.96858
70.574 48.8135 3.97848
68.9088 46.0143 3.96799
74.6792 32.6053 0
73.7222 27.7943 0
67.2507 14.6715 0
72.1454 23.1494 0
70.6131 26.2211 0.0209129
68.8845 21.958 0.0200869
66.6357 17.9725 0.0213914
65.793 21.0276 0.0313342
74.9197 35.0474 2
74.2794 30.1841 2
72.1835 32.944 2
71.277 28.4321 2
65.694 12.7745 2
65.3235 16.1097 2
69.8144 24.0608 2
68.3432 26.9534 2
64.7086 19.1995 2
66.7582 22.9358 2
63.8645 22.0455 2
72.4126 35.2244 3.97984
71.8031 30.6765 3.97933
69.8373 33.2692 3.96874
68.9629 29.0393 3.96814
67.6077 24.9134 3.96812
66.1617 27.6428 3.96699
64.0165 10.9835 4
64.7284 23.8394 3.96612
63.888 14.3293 3.97887
63.5084 17.4536 3.96957
62.8888 20.3312 3.9649
62.0218 22.9689 3.96711
60.6824 11.0997 3.98304
57.6103 11.4547 3.9746
72.1454 51.8506 0
69.9759 56.25 0
68.8351 53.113 0.020899
64.0165 64.0165 0
63.8839 60.7647 0.021201
66.6094 57.1333 0.0209492
63.4964 57.7671 0.0307174
62.2255 65.694 2
58.8951 65.4125 2
69.7676 50.9878 2
67.7829 55.1638 2
66.6449 52.2069 2
62.3364 62.4228 2
64.6558 56.0281 2
62.1975 59.3971 2
61.8137 56.672 2
60.667 63.9756 3.98443
57.0246 66.7346 3.98996
57.556 63.6868 3.97719
67.5036 50.1755 3.96752
65.6979 54.1714 3.96824
64.5045 51.3754 3.96552
60.7694 60.9285 3.97156
62.8078 55.06 3.96488
60.6485 58.1456 3.96475
60.3083 55.7684 3.96427
56.25 69.9759 4
58.3339 68.6801 2
60.3285 67.2507 0
58.9201 9.65738 3.98593
62.2254 9.30607 4
73.0099 49.554 0
74.2788 44.8158 0
71.2483 46.598 0.0215238
72.1675 42.0856 0.0209161
74.9194 39.9526 0
75 37.5 2
72.4047 39.8024 2
71.7816 44.3525 2
69.8007 41.7895 2
70.5738 48.8131 2
68.9087 46.0137 2
72.4882 37.5122 3.97943
70.0387 39.6577 3.96876
69.4273 43.9073 3.96843
67.5662 41.4945 3.96886
68.2622 48.1062 3.96763
66.6686 45.4326 3.9678
74.9197 35.0474 0
74.2794 30.1841 0
72.1841 32.9436 0.0206336
71.2773 28.4316 0.021244
65.694 12.7746 0
65.3219 16.1048 0.0221402
69.8144 24.0596 0.0203172
68.3434 26.9527 0.0319676
66.7587 22.9349 0.0316807
64.7094 19.1986 0.0309752
63.8645 22.045 0.0343584
72.4125 35.2245 2
71.8031 30.6771 2
69.8367 33.2697 2
68.9628 29.0399 2
64.0165 10.9835 2
63.8902 14.3338 2
63.5075 17.4543 2
67.6073 24.9142 2
66.1619 27.6433 2
62.8892 20.3316 2
64.7281 23.8399 2
62.0211 22.9693 2
60.6852 11.1033 2
57.6122 11.4541 2
70.0554 35.3927 3.96885
69.4642 31.1505 3.96843
67.6279 33.5949 3.96848
66.7387 29.63 3.96735
65.4915 25.7083 3.96652
64.0443 28.2774 3.97082
62.3399 12.6572 3.98107
62.7742 24.6621 3.96851
62.1942 15.7958 3.96979
61.8023 18.6975 3.96467
61.1559 21.3687 3.96526
60.2997 23.7691 3.96979
59.2432 12.793 3.97279
55.8726 10.2403 3.9773
56.4011 13.1398 3.97192
69.7677 50.9889 0.0211677
62.2254 65.694 0
58.8935 65.4136 0.0114844
67.7824 55.1671 0.0208049
66.6455 52.2077 0.0322524
62.3342 62.4263 0.0183498
62.1984 59.3964 0.0312626
64.6568 56.0287 0.0309435
61.8143 56.6722 0.0347041
60.6691 63.9737 2
57.0258 66.7339 2
57.5564 63.6877 2
67.5032 50.1747 2
65.6971 54.1706 2
64.5045 51.375 2
60.7686 60.9297 2
62.808 55.0599 2
60.6482 58.1459 2
60.3087 55.7683 2
55.0706 67.9315 3.99131
59.216 62.3564 3.97278
55.8033 64.9058 3.98114
56.3223 62.0722 3.97396
65.2908 49.3982 3.96614
63.683 53.2835 3.9651
62.3474 50.6262 3.96741
59.3251 59.541 3.96585
61.0354 54.2892 3.96583
59.2676 56.9909 3.96319
59.2038 55.1584 3.96603
48.101 68.5769 3.98673
50.9483 69.9312 3.99149
54.0858 71.1327 4
56.25 69.976 2
58.3339 68.6801 0
57.0575 8.33689 3.98707
60.3285 7.74928 4
58.9229 9.65951 2
62.2255 9.30602 2
70.574 48.8135 0.0215192
71.7817 44.3529 0.020949
68.9088 46.0143 0.0320075
69.8013 41.7898 0.0314162
72.4048 39.8023 0.0202064
75 37.5 0
72.4876 37.5123 2
70.0386 39.6576 2
69.4272 43.9069 2
67.566 41.4943 2
68.262 48.1055 2
66.6679 45.4322 2
70.1268 37.5221 3.96885
67.8076 39.5113 3.96903
67.1856 43.4647 3.96821
65.4477 41.2003 3.97407
66.0254 47.4089 3.9671
64.5314 44.8289 3.97153
72.4126 35.2244 0.0201626
71.8031 30.6765 0.0206725
69.8373 33.2692 0.0312608
68.9629 29.0393 0.0318612
64.0165 10.9835 0
63.888 14.3293 0.0211272
63.5084 17.4536 0.0304279
67.6077 24.9134 0.0318843
66.1617 27.6428 0.0330135
64.7284 23.8394 0.033875
62.8888 20.3312 0.0350958
62.0218 22.9689 0.0328942
60.6824 11.0997 0.0169594
57.6103 11.4547 0.025402
70.0554 35.3929 2
69.4641 31.1509 2
67.6279 33.5951 2
66.7386 29.6304 2
62.3423 12.6616 2
62.1933 15.7959 2
61.8017 18.6977 2
65.4915 25.7088 2
64.0428 28.2779 2
61.1549 21.3691 2
62.7734 24.6626 2
60.2994 23.77 2
59.2449 12.7914 2
56.4022 13.1374 2
55.8741 10.24 2
67.8473 35.5498 3.96895
67.2348 31.6281 3.96803
65.6 33.9367 3.97369
64.5595 30.2107 3.97176
63.4456 26.4379 3.96966
62.0879 28.8119 3.97518
60.7716 14.2358 3.97164
60.9047 25.3779 3.97207
60.601 17.1457 3.96576
60.1726 19.845 3.96293
59.5423 22.3027 3.96644
58.8082 24.3752 3.97263
54.0362 9.14148 3.97956
57.904 14.3556 3.97108
54.7831 12.0282 3.97375
55.3041 14.6817 3.96957
67.5036 50.1755 0.0324832
57.0246 66.7346 0.0100409
60.667 63.9756 0.0155668
57.556 63.6868 0.022807
65.6979 54.1714 0.0317639
64.5045 51.3754 0.034483
60.7694 60.9285 0.0284403
60.6485 58.1456 0.0352492
62.8078 55.06 0.0351165
60.3083 55.7684 0.0357274
55.0715 67.9313 2
59.2165 62.3582 2
55.8035 64.9065 2
56.3217 62.0747 2
65.2908 49.3978 2
63.6832 53.2832 2
62.347 50.6258 2
59.3242 59.5421 2
61.0362 54.2892 2
59.2693 56.9909 2
59.2057 55.1583 2
53.0426 68.9993 3.99136
53.9657 66.0108 3.98373
57.8745 60.8526 3.97177
54.6812 63.1995 3.97663
55.2032 60.5906 3.97191
63.0852 48.6357 3.96883
61.67 52.5513 3.96662
60.1143 49.9778 3.96945
58.0013 58.241 3.96602
59.2523 53.916 3.96732
58.0627 55.78 3.96121
50.1077 67.8553 3.9863
47.462 66.5765 3.98279
46.0548 69.1558 3.98702
48.1011 68.5775 2
48.8023 70.7225 3.99161
50.9489 69.9311 2
51.8506 72.1454 4
54.0858 71.1327 2
56.25 69.9759 0
55.1022 7.14132 3.98935
58.3339 6.31992 4
57.0597 8.33835 2
60.3286 7.74926 2
58.9201 9.65738 0.0140718
62.2254 9.30607 0
68.2622 48.1062 0.0323726
69.4273 43.9073 0.0315698
66.6686 45.4326 0.0322014
67.5662 41.4945 0.0311422
70.0387 39.6577 0.0312431
72.4882 37.5122 0.0205663
70.1263 37.5221 2
67.807 39.5111 2
67.1863 43.4644 2
65.4459 41.2 2
66.0256 47.4085 2
64.5296 44.8284 2
67.9075 37.5227 3.96902
65.6862 39.3656 3.97473
65.0632 43.0107 3.973
63.5749 40.9125 3.97723
63.8448 46.6934 3.97004
62.6156 44.1865 3.97567
70.0554 35.3927 0.0311515
69.4642 31.1505 0.0315661
67.6279 33.5949 0.0315228
66.7387 29.63 0.0326483
62.3399 12.6572 0.0189284
62.1942 15.7958 0.0302148
61.8023 18.6975 0.0353321
65.4915 25.7083 0.0334816
64.0443 28.2774 0.0291802
62.7742 24.6621 0.0314908
61.1559 21.3687 0.0347402
60.2997 23.7691 0.0302116
59.2432 12.793 0.027208
56.4011 13.1398 0.028084
55.8726 10.2403 0.0227014
67.8466 35.55 2
67.2354 31.6283 2
65.5978 33.937 2
64.5576 30.2111 2
60.7714 14.2369 2
60.6003 17.1458 2
60.1738 19.8448 2
63.4445 26.4384 2
62.0855 28.8128 2
59.5439 22.3033 2
60.9042 25.3787 2
58.8073 24.3765 2
57.9045 14.3536 2
55.3051 14.6809 2
54.0375 9.13993 2
54.7843 12.0252 2
65.7789 35.6719 3.97441
65.078 32.1689 3.97241
64.1305 34.2638 3.97736
62.4091 30.6659 3.97621
61.4932 27.1103 3.97324
60.6351 29.1849 3.97709
59.3019 15.6898 3.96688
59.1333 25.8516 3.97552
59.0985 18.3829 3.96265
58.644 20.8988 3.96326
58.1192 23.1511 3.96739
57.7753 24.7295 3.97416
52.1113 8.15711 3.98262
53.0554 11.0289 3.97484
56.6645 15.7742 3.96955
53.8031 13.7113 3.97269
54.3602 16.0386 3.9698
55.0706 67.9315 0.00868509
65.2908 49.3982 0.0338608
55.8033 64.9058 0.0188571
59.216 62.3564 0.0272229
56.3223 62.0722 0.0260445
63.683 53.2835 0.0349008
62.3474 50.6262 0.0325877
59.3251 59.541 0.0341507
59.2676 56.9909 0.0368061
61.0354 54.2892 0.0341743
59.2038 55.1584 0.0339689
53.0433 68.9993 2
53.9659 66.0115 2
57.8735 60.8544 2
54.6807 63.2003 2
55.2028 60.5925 2
63.0843 48.6352 2
61.6706 52.5512 2
60.1144 49.9771 2
58.0005 58.2419 2
59.2548 53.9159 2
58.0605 55.7788 2
52.069 66.9981 3.98585
52.952 64.2123 3.98026
56.6361 59.4665 3.96959
[...]
POINT_DATA 3012
SCALARS rho_c_phif_kappa float 4
LOOKUP_TABLE default
1000 0 1.00165 0.264166
1000 0 1.00138 0.264493
1000 0 1.00165 0.264086
1000 0 1.00164 0.264468
1000 0 1.00165 0.264212
1000 0 1.00165 0.264211
1009.33 1.04284e-08 1.00188 0.26328
1000 0 1.00138 0.264525
1000 0 1.00138 0.26466
1000 0 1.00138 0.264479
1000 0 1.00165 0.263957
1009.3 1.02352e-08 1.00202 0.263313
1000 0 1.00164 0.264693
1000 0 1.00164 0.265215
1000 0 1.00165 0.263984
1000 0 1.00164 0.264722
1000 0 1.00165 0.264023
1000 0 1.00165 0.264257
1009.29 1.04515e-08 1.00188 0.263361
1000 0 1.00138 0.264826
1000 0 1.00164 0.264567
1000 0 1.00164 0.264329
1009.28 1.05321e-08 1.00187 0.263879
1009.31 1.04711e-08 1.00188 0.26347
1000 0 1.00165 0.264314
1009.36 1.03853e-08 1.00188 0.263073
1009.83 1.13514e-08 1.0021 0.261673
1000 0 1.00138 0.264604
1000 0 1.00151 0.264423
1000 0 1.00151 0.264246
1000 0 1.00138 0.264707
1009.35 1.02637e-08 1.00202 0.263279
1000 0 1.00164 0.26426
1000 0 1.00165 0.263869
1009.33 1.0487e-08 1.00188 0.263321
1000 0 1.00137 0.264846
1009.3 1.03119e-08 1.00189 0.263395
1009.35 1.01961e-08 1.00202 0.263416
1009.86 1.13579e-08 1.0021 0.261711
1000 0 1.00138 0.265139
1000 0 1.00138 0.26482
1000 0 1.00151 0.264983
1000 0 1.00138 0.264844
1000 0 1.00164 0.26529
1009.24 1.05466e-08 1.00201 0.263951
1000 0 1.00138 0.265191
1009.29 1.0576e-08 1.00188 0.263693
1000 0 1.00164 0.265025
1000 0 1.00165 0.2643
1000 0 1.00165 0.26382
1009.33 1.04284e-08 1.00188 0.263445
1000 0 1.00151 0.265057
1000 0 1.00164 0.264859
1000 0 1.00165 0.264061
1000 0 1.00164 0.264499
1009.13 1.05523e-08 1.00187 0.263755
1009.37 1.04117e-08 1.00188 0.263229
1009.22 1.04914e-08 1.00188 0.263472
1009.84 1.13474e-08 1.0021 0.261561
1000 0 1.00138 0.264867
1000 0 1.00164 0.264633
1009.23 1.05253e-08 1.00187 0.264192
1009.26 1.0543e-08 1.00187 0.26401
1009.3 1.05079e-08 1.00187 0.263678
1009.79 1.13306e-08 1.00209 0.261847
1009.82 1.1343e-08 1.00209 0.261537
1000 0 1.00165 0.264491
1009.4 1.03481e-08 1.00188 0.262892
1009.85 1.13627e-08 1.0021 0.261657
1009.65 1.1155e-08 1.00208 0.25903
1000 0 1.00138 0.264416
1000 0 1.00138 0.264853
1000 0 1.00138 0.264421
1009.3 1.02352e-08 1.00202 0.263242
1000 0 1.00138 0.264538
1000 0 1.00138 0.264333
1009.24 1.05081e-08 1.00202 0.263417
1000 0 1.00151 0.264512
1009.31 1.03383e-08 1.00202 0.263346
1009.4 1.02233e-08 1.00196 0.263386
1009.85 1.13536e-08 1.0021 0.261755
1000 0 1.00137 0.264987
1009.6 1.02285e-08 1.00204 0.263822
1009.33 1.0544e-08 1.00202 0.263568
1009.31 1.04046e-08 1.00202 0.263468
1009.81 1.13374e-08 1.00209 0.261395
1009.42 1.01845e-08 1.00189 0.263478
1009.84 1.13526e-08 1.0021 0.261605
1009.88 1.1371e-08 1.0021 0.261828
1009.69 1.12091e-08 1.00208 0.260166
1000 0 1.00138 0.265246
1000 0 1.00138 0.265193
1000 0 1.00138 0.264726
1000 0 1.00138 0.264827
1000 0 1.00138 0.264841
1000 0 1.00151 0.265046
1009.02 1.05679e-08 1.00194 0.263888
1000 0 1.00151 0.264854
1009.15 1.05973e-08 1.00195 0.263807
1000 0 1.00137 0.264859
1009.2 1.0526e-08 1.002 0.26401
1009.26 1.05646e-08 1.00188 0.263762
1009.78 1.13213e-08 1.00208 0.261967
1009.32 1.05728e-08 1.00188 0.263581
1009.79 1.13279e-08 1.00209 0.261873
1000 0 1.00164 0.264686
1000 0 1.00164 0.265216
1000 0 1.00165 0.263823
1000 0 1.00164 0.264682
1009.28 1.05321e-08 1.00187 0.263617
1009.31 1.04711e-08 1.00188 0.263471
1009.36 1.03853e-08 1.00188 0.263386
1009.83 1.13514e-08 1.0021 0.261462
1000 0 1.00137 0.264835
1000 0 1.00164 0.264947
1009.02 1.05472e-08 1.00194 0.263941
1009.11 1.05644e-08 1.00187 0.263891
1000 0 1.00151 0.26436
1009.44 1.03765e-08 1.00189 0.263174
1009.18 1.05274e-08 1.00187 0.263597
1009.81 1.13273e-08 1.00209 0.261782
1009.84 1.13576e-08 1.0021 0.26151
1009.83 1.13395e-08 1.0021 0.261547
1009.65 1.11553e-08 1.00208 0.259004
1009.18 1.05167e-08 1.002 0.264086
1009.24 1.05398e-08 1.00187 0.264075
1009.78 1.13219e-08 1.00209 0.262062
1009.79 1.1327e-08 1.00209 0.261928
1009.8 1.13359e-08 1.00209 0.261614
1009.62 1.11117e-08 1.00207 0.259688
1000 0 1.00138 0.26491
1009.63 1.11371e-08 1.00207 0.259017
1009.45 1.03182e-08 1.00203 0.263126
1009.86 1.13781e-08 1.0021 0.261533
1009.66 1.11762e-08 1.00208 0.25918
1009.62 1.11088e-08 1.00207 0.256471
1009.57 1.02926e-08 1.00204 0.263743
1009.9 1.14147e-08 1.00211 0.263357
1000 0 1.00138 0.264534
1000 0 1.00138 0.264381
1009.33 1.0487e-08 1.00202 0.263463
1000 0 1.00137 0.265016
1009.35 1.01961e-08 1.00203 0.263265
1009.3 1.03119e-08 1.00202 0.263332
1009.86 1.13579e-08 1.0021 0.26179
1000 0 1.00137 0.26508
1009.6 1.02404e-08 1.00204 0.263953
1009.21 1.05639e-08 1.00195 0.263537
1009.27 1.04282e-08 1.00195 0.263409
1009.82 1.13339e-08 1.00209 0.261403
1009.45 1.02065e-08 1.00203 0.263427
1009.84 1.13483e-08 1.0021 0.261653
1009.87 1.13675e-08 1.0021 0.261878
1009.69 1.121e-08 1.00208 0.260032
1009.5 1.02011e-08 1.00204 0.263581
1009.69 1.02556e-08 1.00205 0.264035
1009.91 1.14064e-08 1.00211 0.263669
1009.8 1.13323e-08 1.00209 0.261506
1009.83 1.13446e-08 1.00209 0.261428
1009.63 1.11324e-08 1.00207 0.258675
1009.89 1.13877e-08 1.00211 0.262509
1009.67 1.11847e-08 1.00208 0.259263
1009.7 1.12327e-08 1.00209 0.260378
1009.65 1.11554e-08 1.00208 0.258421
1000 0 1.00138 0.265266
1000 0 1.00138 0.26523
1000 0 1.00138 0.265184
1009.65 1.03046e-08 1.00204 0.263944
1000 0 1.00138 0.265043
1000 0 1.00138 0.264656
1000 0 1.00138 0.264782
1009.29 1.0576e-08 1.00201 0.263937
1009.24 1.05466e-08 1.00201 0.264047
1000 0 1.00138 0.26486
1000 0 1.00138 0.264854
1009.18 1.0546e-08 1.002 0.264025
1009.25 1.0585e-08 1.00194 0.263877
1009.81 1.13176e-08 1.00208 0.261968
1009.17 1.05932e-08 1.00201 0.263771
1009.81 1.13243e-08 1.00209 0.261861
1009.2 1.05108e-08 1.002 0.26404
1009.78 1.13172e-08 1.00208 0.261966
1009.79 1.13254e-08 1.00209 0.261963
1009.61 1.11035e-08 1.00207 0.260396
1009.79 1.13294e-08 1.00209 0.2617
1009.61 1.11056e-08 1.00207 0.259779
1000 0 1.00138 0.264837
1000 0 1.00164 0.26529
1009.23 1.05253e-08 1.002 0.263981
1009.26 1.0543e-08 1.00187 0.263746
1000 0 1.00138 0.264648
1009.4 1.03481e-08 1.00189 0.263459
1009.3 1.05079e-08 1.00187 0.263513
1009.79 1.13306e-08 1.00209 0.261709
1009.82 1.1343e-08 1.0021 0.261559
1009.85 1.13627e-08 1.0021 0.261368
1009.65 1.1155e-08 1.00208 0.258975
1009.15 1.05368e-08 1.002 0.264057
1009.23 1.05603e-08 1.00187 0.263955
1009.81 1.13183e-08 1.00208 0.262016
1009.81 1.13234e-08 1.00209 0.261943
1000 0 1.00138 0.264868
1009.49 1.03435e-08 1.00196 0.263278
1009.86 1.13736e-08 1.0021 0.261556
1009.82 1.13327e-08 1.00209 0.261575
1009.61 1.11119e-08 1.00207 0.259525
1009.66 1.11768e-08 1.00208 0.259098
1009.63 1.11374e-08 1.00208 0.259061
1009.62 1.1109e-08 1.00207 0.256513
1009.59 1.03115e-08 1.00204 0.263617
1009.9 1.1411e-08 1.00211 0.263364
1009.78 1.13186e-08 1.00208 0.262009
1009.79 1.13241e-08 1.00209 0.262051
1009.61 1.11045e-08 1.00207 0.260545
1009.61 1.11055e-08 1.00207 0.259682
1009.62 1.11226e-08 1.00207 0.259137
1009.59 1.10767e-08 1.00207 0.257505
1009.5 1.02955e-08 1.00204 0.263462
1009.6 1.10949e-08 1.00207 0.256472
1009.89 1.13966e-08 1.0021 0.262044
1009.68 1.12015e-08 1.00208 0.259613
1009.63 1.11265e-08 1.00208 0.25666
1009.61 1.11044e-08 1.00207 0.254826
1009.9 1.14083e-08 1.00211 0.262929
1009.9 1.14192e-08 1.00211 0.263953
1009.73 1.12728e-08 1.00209 0.262424
1009.33 1.0544e-08 1.00201 0.263624
1000 0 1.00138 0.265147
1009.6 1.02285e-08 1.00204 0.264096
1009.31 1.04046e-08 1.00202 0.263362
1009.81 1.13374e-08 1.00209 0.261416
1009.42 1.01845e-08 1.00203 0.263586
1009.88 1.1371e-08 1.0021 0.261922
1009.84 1.13526e-08 1.0021 0.261693
1009.69 1.12091e-08 1.00208 0.259911
1009.52 1.02176e-08 1.00204 0.263732
1009.69 1.02658e-08 1.00205 0.264099
1009.91 1.14033e-08 1.00211 0.263723
1009.82 1.13291e-08 1.00209 0.261499
1009.83 1.13408e-08 1.00209 0.261452
1009.63 1.11329e-08 1.00207 0.258699
1009.89 1.13844e-08 1.0021 0.262524
1009.67 1.11853e-08 1.00208 0.259392
1009.71 1.12333e-08 1.00209 0.260397
1009.66 1.11555e-08 1.00208 0.258094
1009.77 1.02843e-08 1.00205 0.264085
1009.9 1.13958e-08 1.00211 0.26323
1009.91 1.14101e-08 1.00211 0.264278
1009.73 1.12866e-08 1.00209 0.262734
1009.62 1.1118e-08 1.00207 0.258844
1009.65 1.11574e-08 1.00208 0.258797
1009.6 1.10665e-08 1.00207 0.25574
1009.72 1.12588e-08 1.00209 0.261269
1009.63 1.11243e-08 1.00208 0.256078
1009.67 1.11774e-08 1.00209 0.258725
1009.65 1.11377e-08 1.00208 0.256811
1009.88 1.14204e-08 1.0021 0.264831
1009.91 1.034e-08 1.00206 0.263967
1000 0 1.00138 0.265264
1000 0 1.00138 0.265239
1000 0 1.00138 0.265207
1009.73 1.03329e-08 1.00205 0.264053
1000 0 1.00138 0.26512
1009.66 1.03185e-08 1.00205 0.263825
1000 0 1.00138 0.264981
1009.32 1.05728e-08 1.00201 0.263795
1009.26 1.05646e-08 1.00201 0.264019
1009.79 1.13279e-08 1.00209 0.261847
1009.78 1.13213e-08 1.00208 0.261969
1009.2 1.0526e-08 1.002 0.264053
1000 0 1.00137 0.26486
1008.93 1.0533e-08 1.002 0.264045
1009.78 1.13138e-08 1.00208 0.261966
1009.79 1.13219e-08 1.00209 0.261952
1009.61 1.11037e-08 1.00207 0.260388
1009.81 1.1326e-08 1.00209 0.261683
1009.61 1.11059e-08 1.00207 0.259795
1009.77 1.13163e-08 1.00208 0.261982
1009.61 1.1105e-08 1.00207 0.260543
1009.61 1.11055e-08 1.00207 0.26019
1009.58 1.10566e-08 1.00206 0.258795
1009.61 1.11085e-08 1.00207 0.259275
1009.59 1.10724e-08 1.00207 0.25782
1009.18 1.05167e-08 1.002 0.26403
1009.24 1.05398e-08 1.00187 0.263815
1009.78 1.13219e-08 1.00208 0.261971
1009.79 1.1327e-08 1.00209 0.261948
1000 0 1.00138 0.264814
1009.45 1.03182e-08 1.00189 0.263231
1009.86 1.13781e-08 1.00211 0.261566
1009.8 1.13359e-08 1.00209 0.261533
1009.62 1.11117e-08 1.00207 0.259352
1009.63 1.11371e-08 1.00208 0.259107
1009.66 1.11762e-08 1.00208 0.258996
1009.62 1.11088e-08 1.00207 0.256547
1009.57 1.02926e-08 1.00204 0.263504
1009.9 1.14147e-08 1.00211 0.263361
1009.78 1.13151e-08 1.00208 0.261981
1009.78 1.13209e-08 1.00209 0.262015
1009.61 1.11047e-08 1.00207 0.260501
1009.61 1.11058e-08 1.00207 0.259827
1009.53 1.03183e-08 1.00204 0.263356
1009.88 1.13921e-08 1.0021 0.261979
1009.68 1.12025e-08 1.00208 0.259677
1009.62 1.11229e-08 1.00207 0.259219
1009.59 1.10765e-08 1.00207 0.257293
1009.63 1.11268e-08 1.00208 0.256381
1009.6 1.10949e-08 1.00207 0.256482
1009.61 1.11044e-08 1.00207 0.254702
1009.89 1.14053e-08 1.00211 0.263007
1009.73 1.12727e-08 1.00209 0.262535
1009.9 1.14158e-08 1.00211 0.263874
1009.61 1.11044e-08 1.00207 0.260639
1009.61 1.11057e-08 1.00207 0.260207
1009.58 1.10668e-08 1.00206 0.259103
1009.58 1.10693e-08 1.00206 0.257653
1009.59 1.10832e-08 1.00207 0.25657
1009.58 1.10726e-08 1.00206 0.25512
1009.89 1.1405e-08 1.0021 0.262581
1009.6 1.10889e-08 1.00207 0.254229
1009.7 1.12308e-08 1.00209 0.260711
1009.65 1.11501e-08 1.00208 0.256426
1009.62 1.11136e-08 1.00207 0.254327
1009.6 1.11062e-08 1.00207 0.252945
1009.89 1.14226e-08 1.00211 0.264399
1009.72 1.12651e-08 1.00209 0.26227
1009.73 1.1278e-08 1.00209 0.262853
1009.72 1.12285e-08 1.00209 0.261819
1009.8 1.13323e-08 1.00209 0.261496
1009.69 1.02556e-08 1.00205 0.264146
1009.5 1.02011e-08 1.00204 0.263908
1009.91 1.14064e-08 1.00211 0.263772
1009.83 1.13446e-08 1.00209 0.26148
1009.63 1.11324e-08 1.00207 0.258719
1009.89 1.13877e-08 1.0021 0.262536
1009.7 1.12327e-08 1.00209 0.260394
1009.67 1.11847e-08 1.00208 0.259524
1009.65 1.11554e-08 1.00208 0.25778
1009.76 1.02928e-08 1.00205 0.264103
1009.9 1.13928e-08 1.00211 0.263207
1009.91 1.14078e-08 1.00211 0.264386
1009.74 1.12871e-08 1.00209 0.262711
1009.62 1.11183e-08 1.00207 0.258859
1009.65 1.11581e-08 1.00208 0.258844
1009.6 1.10664e-08 1.00207 0.255737
1009.72 1.12597e-08 1.00209 0.261335
1009.63 1.11247e-08 1.00208 0.256337
1009.67 1.11773e-08 1.00209 0.258557
1009.65 1.11381e-08 1.00208 0.256853
1009.84 1.03096e-08 1.00206 0.264047
1009.9 1.14116e-08 1.00211 0.264763
1009.73 1.12761e-08 1.00209 0.262301
1009.73 1.12902e-08 1.0021 0.26337
1009.73 1.12424e-08 1.00209 0.261696
1009.59 1.10385e-08 1.00207 0.256061
1009.61 1.10977e-08 1.00207 0.255426
1009.61 1.11727e-08 1.00207 0.253214
1009.7 1.12078e-08 1.00209 0.259218
1009.63 1.11203e-08 1.00208 0.253275
1009.66 1.11292e-08 1.00208 0.256503
1009.89 1.1416e-08 1.0021 0.264885
1009.72 1.12799e-08 1.00209 0.264999
1009.88 1.14254e-08 1.0021 0.264799
1009.88 1.1419e-08 1.0021 0.264837
1009.98 1.03712e-08 1.00192 0.26426
1009.91 1.03483e-08 1.00199 0.264217
1000 0 1.00167 0.264576
1000 0 1.00138 0.26525
1000 0 1.00138 0.265225
1009.83 1.03735e-08 1.00206 0.264131
1000 0 1.00138 0.265188
1009.74 1.03454e-08 1.00205 0.263979
1000 0 1.00138 0.26509
1009.65 1.03046e-08 1.00205 0.263723
1000 0 1.00138 0.264935
1009.79 1.13294e-08 1.00209 0.261667
1009.79 1.13254e-08 1.00208 0.261944
1009.61 1.11056e-08 1.00207 0.259799
1009.61 1.11035e-08 1.00207 0.260381
1009.78 1.13172e-08 1.00208 0.261965
1009.2 1.05108e-08 1.002 0.264025
1009.81 1.13125e-08 1.00208 0.261981
1009.61 1.1105e-08 1.00207 0.260536
1009.61 1.11057e-08 1.00207 0.260159
1009.58 1.1056e-08 1.00206 0.25868
1009.61 1.11088e-08 1.00207 0.259271
1009.59 1.10721e-08 1.00207 0.257847
1009.61 1.11074e-08 1.00207 0.260596
1009.58 1.10307e-08 1.00206 0.259207
1009.58 1.10602e-08 1.00206 0.258262
1009.59 1.10974e-08 1.00206 0.257666
1009.59 1.10639e-08 1.00207 0.256886
1009.58 1.10605e-08 1.00206 0.255237
1009.78 1.13186e-08 1.00208 0.261959
1009.79 1.13241e-08 1.00209 0.261987
1009.61 1.11045e-08 1.00207 0.260446
1009.61 1.11055e-08 1.00207 0.259975
1009.5 1.02955e-08 1.00204 0.263253
1009.89 1.13966e-08 1.0021 0.26192
1009.68 1.12015e-08 1.00208 0.259767
1009.62 1.11226e-08 1.00207 0.259308
1009.59 1.10767e-08 1.00207 0.25708
1009.6 1.10949e-08 1.00207 0.256492
1009.63 1.11265e-08 1.00208 0.256131
1009.61 1.11044e-08 1.00207 0.254591
1009.9 1.14083e-08 1.00211 0.263082
1009.73 1.12728e-08 1.00209 0.262604
1009.9 1.14192e-08 1.00211 0.263815
1009.61 1.11044e-08 1.00207 0.260606
1009.61 1.11059e-08 1.00207 0.260152
1009.58 1.10663e-08 1.00206 0.259003
1009.58 1.1069e-08 1.00206 0.257753
1009.89 1.14014e-08 1.0021 0.262596
1009.7 1.12305e-08 1.00209 0.260669
1009.65 1.11513e-08 1.00208 0.256646
1009.59 1.1083e-08 1.00207 0.256734
1009.58 1.10722e-08 1.00206 0.254982
1009.62 1.11134e-08 1.00207 0.254109
1009.6 1.10887e-08 1.00207 0.254256
1009.6 1.1106e-08 1.00207 0.252983
1009.72 1.12665e-08 1.00209 0.262227
1009.72 1.12289e-08 1.00209 0.261767
1009.89 1.142e-08 1.00211 0.264356
1009.73 1.1278e-08 1.00209 0.262989
1009.58 1.10413e-08 1.00206 0.25928
1009.58 1.10583e-08 1.00206 0.258506
1009.58 1.10746e-08 1.00206 0.257936
1009.58 1.10748e-08 1.00206 0.254983
1009.59 1.10812e-08 1.00207 0.25459
1009.58 1.10778e-08 1.00206 0.254032
1009.72 1.1253e-08 1.00209 0.261757
1009.59 1.11063e-08 1.00207 0.252201
1009.68 1.11815e-08 1.00209 0.258009
1009.64 1.11195e-08 1.00208 0.253544
1009.62 1.1149e-08 1.00207 0.252671
1009.59 1.10716e-08 1.00207 0.252572
1009.89 1.14264e-08 1.0021 0.264671
1009.72 1.12795e-08 1.00209 0.263394
1009.71 1.12187e-08 1.00209 0.261439
1009.73 1.12419e-08 1.00209 0.261909
1009.72 1.12284e-08 1.00209 0.261194
1009.77 1.02843e-08 1.00205 0.264118
1009.62 1.1118e-08 1.00207 0.258878
1009.91 1.14101e-08 1.00211 0.264512
1009.9 1.13958e-08 1.00211 0.263167
1009.73 1.12866e-08 1.00209 0.262689
1009.65 1.11574e-08 1.00208 0.258882
1009.6 1.10665e-08 1.00207 0.255734
1009.72 1.12588e-08 1.00209 0.261418
1009.67 1.11774e-08 1.00209 0.258313
1009.63 1.11243e-08 1.00208 0.256587
1009.65 1.11377e-08 1.00208 0.256875
1009.84 1.03176e-08 1.00206 0.264034
1009.9 1.14099e-08 1.00211 0.264839
1009.73 1.12775e-08 1.00209 0.262309
1009.73 1.12905e-08 1.0021 0.263427
1009.73 1.12426e-08 1.00209 0.261675
1009.59 1.1039e-08 1.00207 0.256014
1009.61 1.10972e-08 1.00207 0.255428
1009.61 1.11734e-08 1.00207 0.253147
1009.7 1.12082e-08 1.00209 0.259322
1009.63 1.11194e-08 1.00208 0.253545
1009.66 1.11296e-08 1.00208 0.256539
1009.89 1.14132e-08 1.00211 0.264903
1009.73 1.12877e-08 1.00209 0.2642
1009.72 1.12301e-08 1.00209 0.260634
1009.74 1.1256e-08 1.0021 0.262303
1009.73 1.12322e-08 1.00209 0.261213
1009.61 1.12623e-08 1.00207 0.254431
1009.61 1.10627e-08 1.00207 0.252167
1009.55 1.09244e-08 1.00207 0.250721
1009.69 1.11493e-08 1.00209 0.25677
1009.64 1.12039e-08 1.00208 0.253167
1009.89 1.14147e-08 1.0021 0.264901
1009.72 1.12813e-08 1.00209 0.264979
1009.72 1.12803e-08 1.00209 0.264984
1009.74 1.12514e-08 1.0021 0.264289
1009.72 1.1279e-08 1.00209 0.26495
1009.87 1.14311e-08 1.0021 0.264799
1009.88 1.14239e-08 1.0021 0.264797
1010.04 1.0412e-08 1.00192 0.264241
1009.88 1.14204e-08 1.0021 0.264843
1009.98 1.03786e-08 1.00192 0.264389
1000 0 1.00167 0.264557
1009.91 1.034e-08 1.00192 0.264373
1000 0 1.00152 0.264722
1000 0 1.00138 0.265238
1009.92 1.0414e-08 1.00206 0.264179
1009.83 1.03821e-08 1.00206 0.26407
1000 0 1.00138 0.26521
1000 0 1.00138 0.26517
1009.73 1.03329e-08 1.00205 0.263893
1000 0 1.00138 0.265031
1009.61 1.11085e-08 1.00207 0.259264
1009.61 1.11055e-08 1.00207 0.260141
1009.59 1.10724e-08 1.00207 0.25788
1009.58 1.10566e-08 1.00206 0.258562
1009.61 1.1105e-08 1.00207 0.26053
1009.77 1.13163e-08 1.00208 0.261975
1009.61 1.11077e-08 1.00207 0.260599
1009.58 1.10305e-08 1.00206 0.259251
1009.58 1.10599e-08 1.00206 0.258262
1009.59 1.10976e-08 1.00206 0.257525
1009.59 1.10638e-08 1.00207 0.256858
1009.58 1.10603e-08 1.00206 0.255311
1009.57 1.10112e-08 1.00206 0.259476
1009.59 1.11562e-08 1.00206 0.258338
1009.59 1.11181e-08 1.00206 0.256253
1009.59 1.12737e-08 1.00206 0.256668
1009.59 1.11181e-08 1.00206 0.255433
1009.61 1.12421e-08 1.00206 0.253813
1009.61 1.11044e-08 1.00207 0.260573
1009.61 1.11057e-08 1.00207 0.26008
1009.58 1.10668e-08 1.00206 0.258909
1009.58 1.10693e-08 1.00206 0.257858
1009.89 1.1405e-08 1.0021 0.262602
1009.7 1.12308e-08 1.00209 0.260621
1009.65 1.11501e-08 1.00208 0.256857
1009.59 1.10832e-08 1.00207 0.256896
1009.58 1.10726e-08 1.00206 0.254854
1009.6 1.10889e-08 1.00207 0.254284
1009.62 1.11136e-08 1.00207 0.253842
1009.6 1.11062e-08 1.00207 0.253009
1009.72 1.12651e-08 1.00209 0.262203
1009.72 1.12285e-08 1.00209 0.261741
1009.89 1.14226e-08 1.00211 0.264304
1009.73 1.1278e-08 1.00209 0.263075
1009.58 1.10411e-08 1.00206 0.259284
1009.58 1.10583e-08 1.00206 0.258495
1009.58 1.10749e-08 1.00206 0.25791
1009.58 1.10752e-08 1.00206 0.255202
1009.72 1.12542e-08 1.00209 0.261694
1009.68 1.11812e-08 1.00209 0.258272
1009.64 1.11199e-08 1.00208 0.253388
1009.59 1.10813e-08 1.00207 0.254744
1009.58 1.10784e-08 1.00206 0.253959
1009.62 1.1149e-08 1.00207 0.252549
1009.59 1.11065e-08 1.00207 0.252211
1009.59 1.10715e-08 1.00207 0.252559
1009.71 1.1219e-08 1.00209 0.261397
1009.72 1.12271e-08 1.00209 0.26112
1009.73 1.1242e-08 1.00209 0.261939
1009.88 1.14242e-08 1.0021 0.26461
1009.72 1.12795e-08 1.00209 0.263426
1009.59 1.11781e-08 1.00206 0.258158
1009.58 1.10908e-08 1.00206 0.256818
1009.57 1.10554e-08 1.00206 0.253264
1009.58 1.10877e-08 1.00206 0.253057
1009.7 1.1207e-08 1.00209 0.260361
1009.57 1.10427e-08 1.00206 0.250107
1009.67 1.11398e-08 1.00208 0.255321
1009.64 1.12128e-08 1.00208 0.250773
1009.6 1.11184e-08 1.00207 0.251404
1009.88 1.14322e-08 1.0021 0.264774
1009.72 1.12819e-08 1.0021 0.263838
1009.74 1.12398e-08 1.0021 0.262601
1009.71 1.12094e-08 1.00209 0.26054
1009.73 1.12386e-08 1.00209 0.261132
1009.71 1.1231e-08 1.00209 0.260101
1009.84 1.03096e-08 1.00206 0.263999
1009.9 1.14116e-08 1.00211 0.264918
1009.59 1.10385e-08 1.00207 0.255963
1009.73 1.12902e-08 1.0021 0.263481
1009.73 1.12761e-08 1.00209 0.262313
1009.73 1.12424e-08 1.00209 0.261654
1009.61 1.10977e-08 1.00207 0.255437
1009.61 1.11727e-08 1.00207 0.25309
1009.7 1.12078e-08 1.00209 0.259428
1009.66 1.11292e-08 1.00208 0.256578
1009.63 1.11203e-08 1.00208 0.253802
1009.89 1.14115e-08 1.00211 0.26494
1009.73 1.12879e-08 1.00209 0.264252
1009.72 1.12307e-08 1.00209 0.260729
1009.74 1.12558e-08 1.0021 0.262362
1009.73 1.12329e-08 1.00209 0.261066
1009.61 1.1259e-08 1.00207 0.254373
1009.61 1.10662e-08 1.00207 0.252214
1009.55 1.09203e-08 1.00207 0.25065
1009.69 1.11501e-08 1.00209 0.256668
1009.64 1.1208e-08 1.00208 0.2531
1009.72 1.12841e-08 1.00209 0.264735