# vtk DataFile Version 2.0
Wound Healing Simulation
ASCII
DATASET UNSTRUCTURED_GRID
POINTS 3012 float
69.9759 18.75 4
67.2507 60.3285 4
69.976 18.75 2
73.0099 25.446 4
71.1327 20.9142 4
68.6801 16.6661 4
67.8252 19.9261 3.98192
67.2507 60.3286 2
71.1327 54.0858 4
68.6801 58.3339 4
65.6939 62.2254 4
65.3116 59.0008 3.98075
74.6784 42.3946 4
73.7221 47.2057 4
69.9759 18.75 0
73.0099 25.446 2
68.6801 16.6661 2
71.1327 20.9142 2
67.8258 19.9292 2
74.6792 32.6053 4
73.7222 27.7943 4
72.1454 23.1494 4
70.6138 26.2209 3.98131
68.8854 21.958 3.98226
67.2507 14.6715 4
66.6366 17.9722 3.98094
65.7955 21.0262 3.97187
67.2507 60.3285 0
71.1327 54.0858 2
68.6801 58.3339 2
65.694 62.2255 2
65.3128 58.9972 2
72.1454 51.8506 4
69.9759 56.25 4
68.836 53.1129 3.98127
64.0165 64.0165 4
66.6103 57.1335 3.98141
63.8851 60.7655 3.98204
63.4984 57.7689 3.97224
60.3285 67.2507 4
74.6792 42.3947 2
73.7222 47.2057 2
74.9194 39.9526 4
74.2788 44.8158 4
72.168 42.0854 3.98058
73.0099 49.554 4
71.249 46.5979 3.98042
73.0099 25.446 0
71.1327 20.9142 0
68.6801 16.6661 0
67.8252 19.9261 0.0180786
74.6792 32.6053 2
73.7222 27.7943 2
67.2508 14.6715 2
72.1455 23.1494 2
70.6138 26.2213 2
66.6375 17.976 2
68.8857 21.96 2
65.795 21.0269 2
74.9197 35.0474 4
74.2794 30.1841 4
72.1846 32.9432 3.98097
71.2779 28.4313 3.98079
69.8152 24.0595 3.98198
68.3454 26.9518 3.97051
66.761 22.9338 3.97125
65.694 12.7746 4
65.3229 16.1041 3.98057
64.7118 19.1968 3.97265
63.8829 22.0387 3.96789
71.1327 54.0858 0
65.6939 62.2254 0
68.6801 58.3339 0
65.3116 59.0008 0.0192502
72.1455 51.8506 2
69.9759 56.25 2
68.8362 53.111 2
64.0165 64.0165 2
66.6112 57.13 2
63.8867 60.7624 2
63.4979 57.7688 2
62.2254 65.694 4
58.8944 65.4141 3.99047
69.7686 50.9888 3.98111
67.7833 55.1671 3.98132
66.6478 52.2082 3.97022
62.3357 62.4273 3.98577
64.6592 56.03 3.97236
62.2005 59.4003 3.9719
61.818 56.675 3.96891
58.3339 68.6801 4
60.3285 67.2508 2
73.7221 47.2057 0
74.6784 42.3946 0
74.9197 39.9526 2
74.2794 44.8159 2
72.1675 42.0855 2
73.0099 49.554 2
71.2489 46.5978 2
75 37.5 4
72.4053 39.8021 3.98108
71.7823 44.3527 3.98065
69.8028 41.7891 3.97017
70.5748 48.8134 3.9807
68.9108 46.014 3.96984
74.6792 32.6053 0
73.7222 27.7943 0
67.2507 14.6715 0
72.1454 23.1494 0
70.6138 26.2209 0.0186854
68.8854 21.958 0.0177362
66.6366 17.9722 0.0190573
65.7955 21.0262 0.0281327
74.9197 35.0474 2
74.2794 30.1841 2
72.1842 32.9435 2
71.2778 28.4317 2
65.694 12.7745 2
65.3243 16.108 2
69.8153 24.0606 2
68.3453 26.9523 2
64.7112 19.1974 2
66.7606 22.9345 2
63.8823 22.039 2
72.4131 35.2241 3.98117
71.8037 30.6762 3.98104
69.8388 33.2684 3.97058
68.9647 29.0384 3.97037
67.6098 24.9125 3.97075
66.1909 27.6361 3.96761
64.0165 10.9835 4
64.7528 23.8325 3.96791
63.8895 14.3278 3.98325
63.5106 17.4509 3.97217
62.9021 20.3252 3.96773
62.0753 22.9519 3.96707
60.6836 11.0982 3.98692
57.6116 11.4512 3.97852
72.1454 51.8506 0
69.9759 56.25 0
68.836 53.1129 0.0187324
64.0165 64.0165 0
63.8851 60.7655 0.0179646
66.6103 57.1335 0.0185912
63.4984 57.7689 0.0277599
62.2255 65.694 2
58.8956 65.4135 2
69.7686 50.9879 2
67.7838 55.1642 2
66.6474 52.2075 2
62.3375 62.4252 2
64.6587 56.0296 2
62.2 59.4008 2
61.8175 56.6751 2
60.6684 63.9768 3.98812
57.0255 66.7347 3.9915
57.5574 63.6899 3.98129
67.5059 50.1758 3.96978
65.7002 54.1721 3.97101
64.5337 51.3821 3.96673
60.7719 60.9348 3.9766
62.8155 55.0633 3.96756
60.6526 58.1496 3.96598
60.3201 55.7747 3.96799
56.25 69.9759 4
58.3339 68.6801 2
60.3285 67.2507 0
58.9209 9.65649 3.98815
62.2254 9.30607 4
73.0099 49.554 0
74.2788 44.8158 0
71.249 46.5979 0.0195786
72.168 42.0854 0.0194222
74.9194 39.9526 0
75 37.5 2
72.4052 39.8023 2
71.7822 44.3525 2
69.8023 41.7888 2
70.5747 48.8132 2
68.9108 46.0135 2
72.4887 37.5119 3.9809
70.0401 39.6569 3.97031
69.429 43.9068 3.97008
67.593 41.4962 3.9681
68.2644 48.1062 3.9697
66.7037 45.4375 3.96741
74.9197 35.0474 0
74.2794 30.1841 0
72.1846 32.9432 0.019031
71.2779 28.4313 0.0192067
65.694 12.7746 0
65.3229 16.1041 0.0194341
69.8152 24.0595 0.0180194
68.3454 26.9518 0.0294872
66.761 22.9338 0.0287496
64.7118 19.1968 0.0273545
63.8829 22.0387 0.0321106
72.4131 35.2242 2
71.8037 30.6766 2
69.8384 33.2687 2
68.9647 29.0388 2
64.0165 10.9835 2
63.8914 14.3309 2
63.5101 17.4514 2
67.6096 24.9131 2
66.1909 27.6364 2
62.9014 20.3254 2
64.7523 23.8328 2
62.0745 22.9522 2
60.6856 11.1003 2
57.6123 11.45 2
70.0568 35.3918 3.97052
69.4658 31.1496 3.9704
67.6525 33.5913 3.96812
66.7683 29.624 3.96765
65.5203 25.7011 3.96775
64.1117 28.2631 3.9694
62.3414 12.6554 3.98565
62.8343 24.6457 3.96796
62.197 15.7893 3.97405
61.8064 18.6926 3.96694
61.2028 21.3515 3.96558
60.3804 23.7441 3.96856
59.2454 12.7829 3.97715
55.874 10.2363 3.98137
56.4038 13.1231 3.97494
69.7686 50.9888 0.018893
62.2254 65.694 0
58.8944 65.4141 0.00953243
67.7833 55.1671 0.0186788
66.6478 52.2082 0.0297847
62.3357 62.4273 0.0142296
62.2005 59.4003 0.028102
64.6592 56.03 0.0276389
61.818 56.675 0.0310936
60.67 63.9755 2
57.0263 66.7344 2
57.5576 63.6915 2
67.5056 50.1751 2
65.6997 54.1714 2
64.5332 51.3818 2
60.7719 60.936 2
62.815 55.0633 2
60.6522 58.1499 2
60.3197 55.7746 2
55.0713 67.9316 3.99201
59.2183 62.3633 3.97791
55.8045 64.9089 3.98491
56.3253 62.0845 3.97617
65.3271 49.4054 3.9668
63.7016 53.2886 3.96695
62.4118 50.6406 3.96694
59.3299 59.5503 3.97074
61.0684 54.2993 3.96668
59.2779 56.9957 3.96374
59.231 55.1682 3.96606
48.1024 68.5777 3.9876
50.949 69.9313 3.9922
54.0858 71.1327 4
56.25 69.976 2
58.3339 68.6801 0
57.0584 8.33627 3.98944
60.3285 7.74928 4
58.9228 9.65776 2
62.2255 9.30602 2
70.5748 48.8134 0.0193015
71.7823 44.3527 0.0193474
68.9108 46.014 0.0301588
69.8028 41.7891 0.0298271
72.4053 39.8021 0.0189158
75 37.5 0
72.4883 37.5121 2
70.04 39.6569 2
69.4289 43.9065 2
67.5928 41.496 2
68.2644 48.1057 2
66.7034 45.4373 2
70.1282 37.5213 3.97062
67.8318 39.5115 3.96828
67.2174 43.468 3.96773
65.5094 41.2047 3.97119
66.0631 47.4153 3.96713
64.6055 44.8395 3.96967
72.4131 35.2241 0.0188344
71.8037 30.6762 0.018963
69.8388 33.2684 0.0294163
68.9647 29.0384 0.0296285
64.0165 10.9835 0
63.8895 14.3278 0.0167539
63.5106 17.4509 0.0278325
67.6098 24.9125 0.0292534
66.1909 27.6361 0.0323872
64.7528 23.8325 0.0320927
62.9021 20.3252 0.0322713
62.0753 22.9519 0.0329276
60.6836 11.0982 0.0130786
57.6116 11.4512 0.0214768
70.0568 35.392 2
69.4658 31.1499 2
67.6523 33.5915 2
66.7684 29.6242 2
62.3433 12.6583 2
62.1968 15.789 2
61.8058 18.6927 2
65.5201 25.7015 2
64.111 28.2634 2
61.2021 21.3517 2
62.8338 24.6459 2
60.3803 23.7446 2
59.246 12.7826 2
56.4043 13.1217 2
55.8746 10.2351 2
67.868 35.5476 3.96828
67.2618 31.6232 3.96792
65.662 33.9299 3.97119
64.6244 30.1986 3.96993
63.5102 26.4223 3.96881
62.1839 28.7918 3.97302
60.7745 14.2273 3.97695
60.9913 25.3539 3.97033
60.6063 17.1378 3.96883
60.2064 19.8285 3.96444
59.6156 22.2769 3.96596
58.9081 24.3438 3.97098
54.0374 9.13803 3.98302
57.9082 14.3409 3.97585
54.7858 12.0191 3.97601
55.3093 14.6613 3.97377
67.5059 50.1758 0.0302241
57.0255 66.7347 0.00850046
60.6684 63.9768 0.0118849
57.5574 63.6899 0.0187066
65.7002 54.1721 0.0289853
64.5337 51.3821 0.0332741
60.7719 60.9348 0.023404
60.6526 58.1496 0.0340204
62.8155 55.0633 0.032441
60.3201 55.7747 0.032008
55.0719 67.9316 2
59.2184 62.3646 2
55.8044 64.9099 2
56.325 62.0862 2
65.3268 49.4051 2
63.701 53.2884 2
62.412 50.6405 2
59.3295 59.552 2
61.0682 54.2991 2
59.2776 56.9955 2
59.2309 55.1679 2
53.0432 68.9994 3.9921
53.9669 66.0121 3.98645
57.8782 60.8638 3.9754
54.6834 63.2043 3.98045
55.2087 60.6047 3.97549
63.1557 48.6497 3.96795
61.7227 52.5646 3.96659
60.2048 49.998 3.96881
58.0098 58.25 3.96802
59.3092 53.9311 3.96734
58.1039 55.7927 3.96453
50.1091 67.8559 3.98739
47.4631 66.5787 3.98432
46.056 69.1568 3.98774
48.1023 68.5784 2
48.8031 70.7225 3.99231
50.9494 69.9313 2
51.8506 72.1454 4
54.0858 71.1327 2
56.25 69.9759 0
55.1032 7.14068 3.99073
58.3339 6.31992 4
57.0599 8.3369 2
60.3286 7.74926 2
58.9209 9.65649 0.0118471
62.2254 9.30607 0
68.2644 48.1062 0.0303012
69.429 43.9068 0.0299244
66.7037 45.4375 0.0325899
67.593 41.4962 0.0318977
70.0401 39.6569 0.0296935
72.4887 37.5119 0.0191045
70.1279 37.5213 2
67.8317 39.5114 2
67.2179 43.4678 2
65.5086 41.2045 2
66.0631 47.4151 2
64.6045 44.8392 2
67.9285 37.5216 3.96846
65.7454 39.3672 3.97152
65.1302 43.0183 3.97051
63.6606 40.9209 3.97496
63.9195 46.7062 3.96881
62.7154 44.2013 3.97354
70.0568 35.3918 0.0294841
69.4658 31.1496 0.0296029
67.6525 33.5913 0.0318838
66.7683 29.624 0.032348
62.3414 12.6554 0.0143537
62.197 15.7893 0.0259464
61.8064 18.6926 0.0330552
65.5203 25.7011 0.0322472
64.1117 28.2631 0.0306023
62.8343 24.6457 0.0320429
61.2028 21.3515 0.0344207
60.3804 23.7441 0.0314446
59.2454 12.7829 0.02285
56.4038 13.1231 0.0250631
55.874 10.2363 0.0186276
67.868 35.5477 2
67.2619 31.6234 2
65.6614 33.93 2
64.6238 30.1988 2
60.7744 14.2273 2
60.6062 17.1369 2
60.206 19.8286 2
63.5097 26.4226 2
62.1827 28.7923 2
59.6176 22.2772 2
60.991 25.3544 2
58.9071 24.3447 2
57.9081 14.3401 2
55.3094 14.661 2
54.0378 9.13678 2
54.7863 12.0172 2
65.8358 35.6677 3.97125
65.1442 32.1591 3.97054
64.2121 34.2535 3.97524
62.499 30.6485 3.97374
61.5843 27.088 3.97141
60.7445 29.1588 3.97666
59.3075 15.6769 3.97355
59.2406 25.8206 3.97406
59.1099 18.3712 3.96652
58.71 20.8729 3.96348
58.2143 23.1181 3.96637
57.8794 24.6935 3.97284
52.1121 8.15525 3.98486
53.0577 11.0229 3.97868
56.6719 15.7557 3.97512
53.8073 13.6939 3.97552
54.3699 16.0172 3.9753
55.0713 67.9316 0.0079897
65.3271 49.4054 0.0332034
55.8045 64.9089 0.0150901
59.2183 62.3633 0.0220886
56.3253 62.0845 0.0238299
63.7016 53.2886 0.033046
62.4118 50.6406 0.0330596
59.3299 59.5503 0.0292623
59.2779 56.9957 0.0362557
61.0684 54.2993 0.0333244
59.231 55.1682 0.0339398
53.0437 68.9994 2
53.9669 66.0129 2
57.8777 60.8653 2
54.683 63.2053 2
55.2086 60.6064 2
63.1554 48.6495 2
61.7237 52.5646 2
60.2043 49.9975 2
58.0094 58.2514 2
59.3105 53.9308 2
58.1031 55.7921 2
52.0703 66.9989 3.98711
52.9534 64.2163 3.98288
56.6435 59.4789 3.97429
53.6795 61.6167 3.97739
[...]
POINT_DATA 3012
SCALARS rho_c_phif_kappa float 4
LOOKUP_TABLE default
1000 0 1.00137 0.25989
1000 0 1.00116 0.260185
1000 0 1.00137 0.259734
1000 0 1.00136 0.260108
1000 0 1.00137 0.259897
1000 0 1.00137 0.259954
1008.23 9.27191e-09 1.00154 0.259223
1000 0 1.00116 0.260215
1000 0 1.00117 0.260164
1000 0 1.00117 0.260082
1000 0 1.00137 0.259625
1008.22 9.11225e-09 1.00165 0.259186
1000 0 1.00136 0.260235
1000 0 1.00136 0.260589
1000 0 1.00137 0.259559
1000 0 1.00136 0.260229
1000 0 1.00137 0.2597
1000 0 1.00137 0.259845
1008.23 9.28973e-09 1.00154 0.259334
1000 0 1.00116 0.260405
1000 0 1.00136 0.260207
1000 0 1.00137 0.259983
1008.19 9.35528e-09 1.00153 0.259637
1008.22 9.30689e-09 1.00153 0.259348
1000 0 1.00137 0.26003
1008.26 9.23631e-09 1.00154 0.259072
1008.43 9.76788e-09 1.00169 0.258246
1000 0 1.00116 0.260298
1000 0 1.00127 0.259992
1000 0 1.00127 0.259884
1000 0 1.00116 0.26036
1008.25 9.13355e-09 1.00165 0.259185
1000 0 1.00137 0.25986
1000 0 1.00137 0.259542
1008.23 9.31927e-09 1.00154 0.259271
1000 0 1.00116 0.260282
1008.21 9.17602e-09 1.00154 0.259338
1008.26 9.07865e-09 1.00165 0.259352
1008.45 9.79042e-09 1.00169 0.258313
1000 0 1.00116 0.260641
1000 0 1.00117 0.260401
1000 0 1.00126 0.260459
1000 0 1.00116 0.260418
1000 0 1.00136 0.260649
1008.15 9.36573e-09 1.00163 0.25973
1000 0 1.00117 0.260616
1008.19 9.39067e-09 1.00154 0.259553
1000 0 1.00136 0.260409
1000 0 1.00137 0.259788
1000 0 1.00137 0.259444
1008.23 9.27191e-09 1.00154 0.259446
1000 0 1.00126 0.260578
1000 0 1.00136 0.260359
1000 0 1.00137 0.259726
1000 0 1.00137 0.260033
1008.09 9.37034e-09 1.00153 0.259581
1008.29 9.25664e-09 1.00154 0.25924
1008.17 9.32233e-09 1.00153 0.259396
1008.43 9.76405e-09 1.00169 0.258151
1000 0 1.00116 0.260439
1000 0 1.00136 0.260262
1008.13 9.34838e-09 1.00153 0.259886
1008.17 9.36363e-09 1.00153 0.259737
1008.2 9.33633e-09 1.00153 0.259488
1008.39 9.73614e-09 1.00169 0.25823
1008.41 9.75528e-09 1.00169 0.258129
1000 0 1.00137 0.260077
1008.29 9.20543e-09 1.00154 0.258976
1008.44 9.78292e-09 1.0017 0.25825
1008.25 9.55966e-09 1.00167 0.256618
1000 0 1.00117 0.260069
1000 0 1.00116 0.26043
1000 0 1.00116 0.260139
1008.22 9.11225e-09 1.00165 0.259184
1000 0 1.00117 0.26015
1000 0 1.00117 0.260021
1008.18 9.33541e-09 1.00164 0.259309
1000 0 1.00127 0.260024
1008.24 9.19614e-09 1.00164 0.25925
1008.28 9.09732e-09 1.0016 0.259359
1008.45 9.78618e-09 1.00169 0.258352
1000 0 1.00116 0.26054
1008.46 9.09876e-09 1.00166 0.259609
1008.23 9.36542e-09 1.00164 0.259459
1008.22 9.25231e-09 1.00164 0.259396
1008.41 9.74625e-09 1.00168 0.257994
1008.31 9.0664e-09 1.00155 0.259471
1008.44 9.77897e-09 1.00169 0.258198
1008.46 9.8035e-09 1.00169 0.25847
1008.29 9.60997e-09 1.00168 0.257223
1000 0 1.00116 0.260685
1000 0 1.00116 0.260641
1000 0 1.00117 0.260315
1000 0 1.00117 0.260413
1000 0 1.00116 0.260419
1000 0 1.00126 0.260524
1008 9.38237e-09 1.00159 0.25967
1000 0 1.00127 0.260347
1008.09 9.40708e-09 1.00159 0.259617
1000 0 1.00116 0.260436
1008.11 9.34798e-09 1.00163 0.259734
1008.16 9.38106e-09 1.00154 0.259596
1008.38 9.7244e-09 1.00168 0.258177
1008.22 9.3884e-09 1.00154 0.25944
1008.39 9.73004e-09 1.00168 0.25824
1000 0 1.00136 0.260227
1000 0 1.00136 0.260576
1000 0 1.00137 0.259451
1000 0 1.00137 0.260097
1008.19 9.35528e-09 1.00153 0.259503
1008.22 9.30689e-09 1.00153 0.259443
1008.26 9.23631e-09 1.00154 0.259407
1008.43 9.76788e-09 1.00169 0.258068
1000 0 1.00116 0.26041
1000 0 1.00136 0.260441
1008 9.36535e-09 1.00158 0.259695
1008.05 9.37983e-09 1.00153 0.259681
1000 0 1.00127 0.260006
1008.33 9.22559e-09 1.00154 0.259234
1008.12 9.3508e-09 1.00153 0.259468
1008.41 9.73317e-09 1.00168 0.258174
1008.43 9.77853e-09 1.0017 0.258132
1008.42 9.75196e-09 1.00169 0.258118
1008.25 9.56006e-09 1.00167 0.256603
1008.1 9.3404e-09 1.00163 0.25981
1008.14 9.36047e-09 1.00153 0.259783
1008.38 9.72723e-09 1.00168 0.258253
1008.39 9.73102e-09 1.00168 0.258236
1008.4 9.74417e-09 1.00169 0.258112
1008.22 9.51616e-09 1.00167 0.25681
1000 0 1.00116 0.26045
1008.24 9.54202e-09 1.00167 0.256563
1008.34 9.17809e-09 1.00165 0.259146
1008.46 9.80098e-09 1.00169 0.258239
1008.26 9.57989e-09 1.00167 0.256731
1008.23 9.53592e-09 1.00167 0.25524
1008.44 9.15268e-09 1.00166 0.2596
1008.46 9.82e-09 1.00169 0.259704
1000 0 1.00117 0.260147
1000 0 1.00117 0.260075
1008.23 9.31927e-09 1.00164 0.259348
1000 0 1.00116 0.260503
1008.26 9.07865e-09 1.00165 0.25923
1008.21 9.17602e-09 1.00164 0.259244
1008.45 9.79042e-09 1.00169 0.258382
1000 0 1.00116 0.260576
1008.46 9.10658e-09 1.00166 0.259677
1008.15 9.3804e-09 1.00159 0.259434
1008.21 9.27067e-09 1.00159 0.259354
1008.41 9.74292e-09 1.00168 0.257993
1008.32 9.08014e-09 1.00165 0.259326
1008.44 9.7748e-09 1.00169 0.258239
1008.46 9.80008e-09 1.00169 0.258511
1008.29 9.6109e-09 1.00168 0.257156
1008.38 9.07743e-09 1.00166 0.259447
1008.53 9.12025e-09 1.00166 0.259685
1008.46 9.81789e-09 1.00169 0.259822
1008.39 9.73451e-09 1.00168 0.258064
1008.42 9.76267e-09 1.00168 0.25803
1008.23 9.54017e-09 1.00167 0.256403
1008.47 9.81233e-09 1.00169 0.25904
1008.27 9.58749e-09 1.00167 0.256822
1008.3 9.63105e-09 1.00168 0.257378
1008.27 9.58168e-09 1.00168 0.255919
1000 0 1.00116 0.26069
1000 0 1.00116 0.260659
1000 0 1.00116 0.260619
1008.5 9.16104e-09 1.00166 0.259701
1000 0 1.00116 0.260529
1000 0 1.00117 0.260253
1000 0 1.00117 0.260367
1008.19 9.39067e-09 1.00164 0.259692
1008.15 9.36573e-09 1.00163 0.25978
1000 0 1.00116 0.260436
1000 0 1.00116 0.260428
1008.09 9.36414e-09 1.00163 0.259751
1008.16 9.39705e-09 1.00159 0.259667
1008.41 9.72107e-09 1.00168 0.258177
1008.11 9.40375e-09 1.00164 0.259572
1008.4 9.72684e-09 1.00168 0.258229
1008.11 9.33561e-09 1.00163 0.259763
1008.38 9.72022e-09 1.00168 0.258131
1008.39 9.7283e-09 1.00168 0.258234
1008.21 9.50659e-09 1.00166 0.256953
1008.39 9.73099e-09 1.00168 0.258169
1008.21 9.50953e-09 1.00166 0.256823
1000 0 1.00116 0.260409
1000 0 1.00136 0.260641
1008.13 9.34838e-09 1.00163 0.25976
1008.17 9.36363e-09 1.00153 0.259598
1000 0 1.00116 0.260199
1008.29 9.20543e-09 1.00155 0.259492
1008.2 9.33633e-09 1.00153 0.259443
1008.39 9.73614e-09 1.00168 0.258112
1008.41 9.75528e-09 1.00169 0.258111
1008.44 9.78292e-09 1.0017 0.258013
1008.25 9.55966e-09 1.00167 0.256586
1008.06 9.35671e-09 1.00163 0.259779
1008.13 9.37652e-09 1.00153 0.259721
1008.41 9.72393e-09 1.00168 0.258223
1008.41 9.72788e-09 1.00168 0.25825
1000 0 1.00116 0.260445
1008.35 9.19453e-09 1.0016 0.259288
1008.45 9.79698e-09 1.00169 0.258249
1008.41 9.74116e-09 1.00169 0.258084
1008.21 9.51637e-09 1.00166 0.256709
1008.26 9.58067e-09 1.00167 0.2567
1008.23 9.54229e-09 1.00167 0.25659
1008.23 9.53624e-09 1.00167 0.255253
1008.44 9.16516e-09 1.00166 0.259503
1008.46 9.81724e-09 1.00169 0.259693
1008.38 9.72279e-09 1.00168 0.258169
1008.39 9.72803e-09 1.00168 0.258288
1008.21 9.50763e-09 1.00166 0.257119
1008.21 9.51e-09 1.00166 0.256709
1008.22 9.52715e-09 1.00167 0.256571
1008.2 9.50272e-09 1.00166 0.255428
1008.38 9.15704e-09 1.00165 0.259408
1008.22 9.5223e-09 1.00167 0.255096
1008.47 9.81569e-09 1.00169 0.258745
1008.28 9.60377e-09 1.00168 0.25703
1008.25 9.55506e-09 1.00167 0.25544
1008.23 9.53075e-09 1.00167 0.253957
1008.46 9.81737e-09 1.00169 0.259457
1008.45 9.82104e-09 1.00169 0.26005
1008.31 9.64965e-09 1.00168 0.258998
1008.23 9.36542e-09 1.00164 0.259476
1000 0 1.00116 0.260586
1008.46 9.09876e-09 1.00166 0.25975
1008.22 9.25231e-09 1.00164 0.259268
1008.41 9.74625e-09 1.00168 0.257997
1008.31 9.0664e-09 1.00165 0.259461
1008.46 9.8035e-09 1.00169 0.258552
1008.44 9.77897e-09 1.00169 0.258272
1008.29 9.60997e-09 1.00168 0.257099
1008.38 9.0881e-09 1.00166 0.259554
1008.53 9.12714e-09 1.00166 0.259697
1008.46 9.81525e-09 1.00169 0.259873
1008.41 9.73148e-09 1.00168 0.258051
1008.43 9.75904e-09 1.00168 0.258049
1008.23 9.54064e-09 1.00167 0.256421
1008.47 9.80882e-09 1.00169 0.259052
1008.27 9.58822e-09 1.00167 0.256863
1008.3 9.63193e-09 1.00168 0.257391
1008.27 9.58185e-09 1.00168 0.255808
1008.6 9.14345e-09 1.00167 0.259646
1008.47 9.81373e-09 1.00169 0.259546
1008.46 9.8187e-09 1.00169 0.260162
1008.31 9.65975e-09 1.00168 0.259195
1008.22 9.53087e-09 1.00167 0.256462
1008.25 9.55963e-09 1.00167 0.256492
1008.22 9.5047e-09 1.00166 0.254634
1008.31 9.6468e-09 1.00168 0.258163
1008.25 9.55776e-09 1.00167 0.255206
1008.29 9.60682e-09 1.00168 0.256023
1008.27 9.56935e-09 1.00167 0.254869
1008.42 9.81887e-09 1.00169 0.260335
1008.73 9.18957e-09 1.00167 0.259516
1000 0 1.00116 0.260702
1000 0 1.00116 0.260675
1000 0 1.00116 0.260643
1008.58 9.18401e-09 1.00166 0.259725
1000 0 1.00116 0.26059
1008.5 9.17121e-09 1.00166 0.25963
1000 0 1.00116 0.260515
1008.22 9.3884e-09 1.00164 0.259596
1008.16 9.38106e-09 1.00164 0.259765
1008.39 9.73004e-09 1.00168 0.258219
1008.38 9.7244e-09 1.00168 0.25818
1008.11 9.34798e-09 1.00163 0.259779
1000 0 1.00116 0.260438
1007.92 9.35323e-09 1.00163 0.259769
1008.38 9.71705e-09 1.00168 0.258132
1008.39 9.72514e-09 1.00168 0.258232
1008.21 9.50676e-09 1.00166 0.256947
1008.41 9.72797e-09 1.00168 0.258153
1008.21 9.50978e-09 1.00166 0.25682
1008.38 9.71956e-09 1.00168 0.258136
1008.21 9.50944e-09 1.00166 0.257002
1008.21 9.5086e-09 1.00166 0.25691
1008.19 9.48816e-09 1.00166 0.255763
1008.21 9.51494e-09 1.00166 0.256643
1008.2 9.50352e-09 1.00166 0.255509
1008.1 9.3404e-09 1.00163 0.25975
1008.14 9.36047e-09 1.00153 0.259646
1008.38 9.72723e-09 1.00167 0.25819
1008.39 9.73102e-09 1.00169 0.258257
1000 0 1.00116 0.260432
1008.34 9.17809e-09 1.00155 0.2593
1008.46 9.80098e-09 1.0017 0.258244
1008.4 9.74417e-09 1.00169 0.258053
1008.22 9.51616e-09 1.00166 0.256602
1008.24 9.54202e-09 1.00167 0.256618
1008.26 9.57989e-09 1.00167 0.256666
1008.23 9.53592e-09 1.00167 0.255264
1008.44 9.15268e-09 1.00166 0.259415
1008.46 9.82e-09 1.00169 0.25968
1008.38 9.71958e-09 1.00167 0.258152
1008.39 9.72512e-09 1.00168 0.258261
1008.21 9.50781e-09 1.00166 0.257081
1008.21 9.51027e-09 1.00166 0.256802
1008.38 9.17132e-09 1.00165 0.259321
1008.46 9.81179e-09 1.00169 0.25869
1008.28 9.60503e-09 1.00168 0.257089
1008.22 9.52737e-09 1.00167 0.256611
1008.2 9.50273e-09 1.00166 0.255319
1008.25 9.55555e-09 1.00167 0.255319
1008.22 9.52248e-09 1.00167 0.255092
1008.23 9.53093e-09 1.00167 0.253865
1008.46 9.81444e-09 1.00169 0.259491
1008.31 9.65023e-09 1.00168 0.259062
1008.45 9.81816e-09 1.00169 0.259986
1008.21 9.50944e-09 1.00166 0.2571
1008.21 9.5091e-09 1.00166 0.256975
1008.2 9.49127e-09 1.00166 0.256085
1008.2 9.49482e-09 1.00166 0.255323
1008.21 9.5113e-09 1.00166 0.255051
1008.2 9.49647e-09 1.00166 0.253851
1008.46 9.81793e-09 1.00169 0.259193
1008.22 9.51415e-09 1.00166 0.253399
1008.3 9.62882e-09 1.00168 0.257869
1008.27 9.58216e-09 1.00167 0.255471
1008.24 9.54116e-09 1.00167 0.253932
1008.22 9.52691e-09 1.00167 0.252274
1008.44 9.82005e-09 1.00169 0.26032
1008.31 9.64554e-09 1.00168 0.259061
1008.31 9.65248e-09 1.00168 0.259217
1008.32 9.63144e-09 1.00168 0.258507
1008.39 9.73451e-09 1.00168 0.258042
1008.53 9.12025e-09 1.00166 0.259694
1008.38 9.07743e-09 1.00165 0.259678
1008.46 9.81789e-09 1.00169 0.259929
1008.42 9.76267e-09 1.00168 0.258068
1008.23 9.54017e-09 1.00167 0.256435
1008.47 9.81233e-09 1.00169 0.259057
1008.3 9.63105e-09 1.00168 0.257378
1008.27 9.58749e-09 1.00167 0.256909
1008.27 9.58168e-09 1.00168 0.255692
1008.6 9.14972e-09 1.00167 0.259631
1008.46 9.81094e-09 1.00169 0.259553
1008.46 9.81628e-09 1.00169 0.260249
1008.31 9.6599e-09 1.00168 0.259163
1008.22 9.53108e-09 1.00167 0.256473
1008.25 9.56034e-09 1.00167 0.256508
1008.22 9.50469e-09 1.00166 0.254637
1008.31 9.64742e-09 1.00168 0.25818
1008.25 9.55816e-09 1.00167 0.255306
1008.29 9.60709e-09 1.00168 0.255902
1008.27 9.56958e-09 1.00167 0.254922
1008.67 9.16433e-09 1.00167 0.259579
1008.45 9.81804e-09 1.00169 0.260408
1008.31 9.6538e-09 1.00168 0.258902
1008.31 9.66045e-09 1.00168 0.25966
1008.33 9.6437e-09 1.00168 0.258297
1008.21 9.46748e-09 1.00166 0.25477
1008.23 9.54797e-09 1.00167 0.254663
1008.22 9.52187e-09 1.00166 0.252751
1008.31 9.63323e-09 1.00168 0.256709
1008.25 9.54577e-09 1.00167 0.253314
1008.28 9.56978e-09 1.00168 0.254487
1008.43 9.81785e-09 1.00169 0.260392
1008.3 9.65219e-09 1.00168 0.260698
1008.41 9.81974e-09 1.00169 0.260301
1008.42 9.81746e-09 1.00169 0.260344
1008.78 9.21486e-09 1.00157 0.259794
1008.72 9.19555e-09 1.00162 0.259732
1000 0 1.00138 0.260089
1000 0 1.00116 0.260692
1000 0 1.00116 0.260664
1008.65 9.21587e-09 1.00167 0.259729
1000 0 1.00116 0.260631
1008.57 9.19255e-09 1.00166 0.259694
1000 0 1.00116 0.260583
1008.5 9.16104e-09 1.00166 0.259563
1000 0 1.00116 0.260498
1008.39 9.73099e-09 1.00168 0.258137
1008.39 9.7283e-09 1.00168 0.258229
1008.21 9.50953e-09 1.00166 0.256814
1008.21 9.50659e-09 1.00166 0.256941
1008.38 9.72022e-09 1.00168 0.258132
1008.11 9.33561e-09 1.00163 0.259749
1008.41 9.71605e-09 1.00168 0.258134
1008.21 9.50949e-09 1.00166 0.256997
1008.21 9.50881e-09 1.00166 0.2569
1008.2 9.48798e-09 1.00166 0.255663
1008.21 9.51522e-09 1.00166 0.256637
1008.2 9.50349e-09 1.00166 0.255526
1008.21 9.51333e-09 1.00166 0.257034
1008.19 9.4684e-09 1.00166 0.255999
1008.2 9.49281e-09 1.00166 0.255493
1008.2 9.46866e-09 1.00166 0.254774
1008.2 9.49756e-09 1.00166 0.255244
1008.2 9.46743e-09 1.00166 0.253575
1008.38 9.72279e-09 1.00167 0.25814
1008.39 9.72803e-09 1.00168 0.258236
1008.21 9.50763e-09 1.00166 0.257041
1008.21 9.51e-09 1.00167 0.256893
1008.38 9.15704e-09 1.00165 0.25924
1008.47 9.81569e-09 1.00169 0.258644
1008.28 9.60377e-09 1.00168 0.257156
1008.22 9.52715e-09 1.00167 0.256654
1008.2 9.50272e-09 1.00166 0.25521
1008.22 9.5223e-09 1.00167 0.255088
1008.25 9.55506e-09 1.00167 0.255213
1008.23 9.53075e-09 1.00167 0.253771
1008.46 9.81737e-09 1.00169 0.259521
1008.31 9.64965e-09 1.00168 0.259111
1008.45 9.82104e-09 1.00169 0.259934
1008.21 9.50953e-09 1.00166 0.257072
1008.21 9.50933e-09 1.00166 0.256932
1008.2 9.49105e-09 1.00166 0.256032
1008.2 9.49466e-09 1.00166 0.255377
1008.46 9.81414e-09 1.00169 0.259207
1008.3 9.62893e-09 1.00168 0.257866
1008.27 9.5835e-09 1.00168 0.255564
1008.21 9.5113e-09 1.00166 0.25513
1008.2 9.49619e-09 1.00166 0.253757
1008.24 9.54154e-09 1.00167 0.253829
1008.22 9.51412e-09 1.00166 0.25342
1008.22 9.52683e-09 1.00167 0.252202
1008.31 9.64621e-09 1.00168 0.259045
1008.32 9.63177e-09 1.00168 0.258497
1008.44 9.81777e-09 1.00169 0.260265
1008.31 9.65232e-09 1.00168 0.259281
1008.19 9.46654e-09 1.00166 0.256133
1008.2 9.49118e-09 1.00166 0.255798
1008.2 9.49227e-09 1.00166 0.255119
1008.2 9.49881e-09 1.00166 0.253346
1008.21 9.50054e-09 1.00166 0.253575
1008.2 9.50559e-09 1.00166 0.252984
1008.31 9.64041e-09 1.00168 0.258712
1008.21 9.52509e-09 1.00166 0.251616
1008.3 9.61416e-09 1.00168 0.256369
1008.26 9.55218e-09 1.00167 0.253843
1008.24 9.54975e-09 1.00167 0.252481
1008.22 9.53217e-09 1.00166 0.251496
1008.43 9.81897e-09 1.00169 0.260417
1008.31 9.65238e-09 1.00168 0.259635
1008.31 9.62799e-09 1.00168 0.258489
1008.33 9.64003e-09 1.00168 0.258474
1008.32 9.63412e-09 1.00168 0.25822
1008.6 9.14345e-09 1.00167 0.259601
1008.22 9.53087e-09 1.00167 0.256485
1008.46 9.8187e-09 1.00169 0.260357
1008.47 9.81373e-09 1.00169 0.259544
1008.31 9.65975e-09 1.00168 0.259133
1008.25 9.55963e-09 1.00167 0.256517
1008.22 9.5047e-09 1.00166 0.254641
1008.31 9.6468e-09 1.00168 0.258216
1008.29 9.60682e-09 1.00168 0.255746
1008.25 9.55776e-09 1.00167 0.255403
1008.27 9.56935e-09 1.00167 0.254981
1008.66 9.17049e-09 1.00167 0.259554
1008.45 9.81619e-09 1.00169 0.260467
1008.31 9.6546e-09 1.00168 0.258914
1008.31 9.66026e-09 1.00168 0.259666
1008.33 9.6438e-09 1.00168 0.25826
1008.21 9.46841e-09 1.00166 0.254742
1008.24 9.54807e-09 1.00167 0.254673
1008.22 9.52272e-09 1.00166 0.252682
1008.31 9.63274e-09 1.00168 0.256753
1008.25 9.54539e-09 1.00167 0.253424
1008.28 9.57014e-09 1.00168 0.254577
1008.44 9.81758e-09 1.00169 0.260441
1008.31 9.65691e-09 1.00168 0.260207
1008.32 9.64048e-09 1.00168 0.257725
1008.33 9.65167e-09 1.00168 0.258682
1008.33 9.63605e-09 1.00168 0.25788
1008.21 9.56778e-09 1.00166 0.253595
1008.22 9.42034e-09 1.00167 0.252249
1008.2 9.61087e-09 1.00166 0.250658
1008.3 9.58968e-09 1.00168 0.255166
1008.25 9.51678e-09 1.00167 0.252686
1008.43 9.81642e-09 1.00169 0.260404
1008.3 9.65351e-09 1.00168 0.260658
1008.3 9.65228e-09 1.00168 0.260692
1008.33 9.64382e-09 1.00169 0.260146
1008.3 9.65055e-09 1.00168 0.26068
1008.4 9.82062e-09 1.00169 0.260295
1008.41 9.81834e-09 1.00169 0.260304
1008.84 9.24808e-09 1.00157 0.25977
1008.42 9.81887e-09 1.00169 0.260352
1008.78 9.22047e-09 1.00157 0.259885
1000 0 1.00138 0.260084
1008.73 9.18957e-09 1.00156 0.25987
1000 0 1.00127 0.260248
1000 0 1.00116 0.260684
1008.72 9.24897e-09 1.00167 0.259697
1008.65 9.22302e-09 1.00167 0.259711
1000 0 1.00117 0.260653
1000 0 1.00116 0.260637
1008.58 9.18401e-09 1.00166 0.259655
1000 0 1.00116 0.260567
1008.21 9.51494e-09 1.00166 0.25663
1008.21 9.5086e-09 1.00166 0.256895
1008.2 9.50352e-09 1.00166 0.255547
1008.19 9.48816e-09 1.00166 0.255562
1008.21 9.50944e-09 1.00166 0.256993
1008.38 9.71956e-09 1.00168 0.258128
1008.2 9.51363e-09 1.00166 0.257035
1008.19 9.46849e-09 1.00166 0.256052
1008.2 9.49264e-09 1.00166 0.255497
1008.2 9.46847e-09 1.00166 0.254626
1008.21 9.49747e-09 1.00166 0.255226
1008.19 9.46715e-09 1.00166 0.25359
1008.19 9.45414e-09 1.00166 0.256269
1008.19 9.45705e-09 1.00166 0.255289
1008.2 9.48987e-09 1.00166 0.253841
1008.22 9.72932e-09 1.00166 0.253866
1008.21 9.50031e-09 1.00166 0.254085
1008.22 9.639e-09 1.00166 0.252275
1008.21 9.50944e-09 1.00166 0.257042
1008.21 9.5091e-09 1.00166 0.256889
1008.2 9.49127e-09 1.00166 0.255985
1008.2 9.49482e-09 1.00166 0.255437
1008.46 9.81793e-09 1.00169 0.259214
1008.3 9.62882e-09 1.00168 0.257857
1008.27 9.58216e-09 1.00168 0.25565
1008.21 9.5113e-09 1.00166 0.255207
1008.2 9.49647e-09 1.00166 0.253666
1008.22 9.51415e-09 1.00166 0.253443
1008.24 9.54116e-09 1.00167 0.253702
1008.22 9.52691e-09 1.00167 0.252136
1008.31 9.64554e-09 1.00168 0.259038
1008.32 9.63144e-09 1.00168 0.258493
1008.44 9.82005e-09 1.00169 0.260209
1008.31 9.65248e-09 1.00168 0.259337
1008.19 9.46662e-09 1.00166 0.256138
1008.2 9.49132e-09 1.00166 0.255786
1008.2 9.4925e-09 1.00166 0.255113
1008.2 9.49924e-09 1.00166 0.253492
1008.31 9.64079e-09 1.00168 0.258683
1008.3 9.61444e-09 1.00168 0.256503
1008.26 9.55311e-09 1.00167 0.253763
1008.21 9.5009e-09 1.00166 0.253684
1008.2 9.50629e-09 1.00166 0.252891
1008.24 9.54985e-09 1.00167 0.252448
1008.21 9.52562e-09 1.00166 0.251626
1008.22 9.53246e-09 1.00166 0.251447
1008.31 9.62766e-09 1.00168 0.258474
1008.32 9.63406e-09 1.00168 0.258186
1008.33 9.64024e-09 1.00168 0.258474
1008.42 9.81714e-09 1.00169 0.260369
1008.31 9.65244e-09 1.00168 0.25968
1008.2 9.5207e-09 1.00166 0.25524
1008.19 9.45935e-09 1.00166 0.25431
1008.19 9.46593e-09 1.00166 0.252138
1008.2 9.51699e-09 1.00166 0.252161
1008.31 9.62941e-09 1.00168 0.257773
1008.2 9.51561e-09 1.00166 0.249746
1008.29 9.57618e-09 1.00168 0.254943
1008.25 9.5585e-09 1.00167 0.251981
1008.24 9.65005e-09 1.00167 0.251106
1008.42 9.81951e-09 1.00169 0.260409
1008.3 9.65355e-09 1.00168 0.259985
1008.33 9.64077e-09 1.00168 0.25892
1008.32 9.62199e-09 1.00168 0.25799
1008.33 9.63963e-09 1.00168 0.257942
1008.31 9.62748e-09 1.00168 0.257751
1008.67 9.16433e-09 1.00167 0.259527
1008.45 9.81804e-09 1.00169 0.260528
1008.21 9.46748e-09 1.00166 0.254712
1008.31 9.66045e-09 1.00168 0.259669
1008.31 9.6538e-09 1.00168 0.258925
1008.33 9.6437e-09 1.00168 0.258221
1008.23 9.54797e-09 1.00167 0.254684
1008.22 9.52187e-09 1.00166 0.252622
1008.31 9.63323e-09 1.00168 0.256792
1008.28 9.56978e-09 1.00168 0.254647
1008.25 9.54577e-09 1.00167 0.253519
1008.44 9.81598e-09 1.00169 0.260466
1008.31 9.65671e-09 1.00168 0.260246
1008.32 9.64065e-09 1.00168 0.257758
1008.33 9.65115e-09 1.00168 0.258692
1008.33 9.63638e-09 1.00168 0.25779
1008.21 9.56291e-09 1.00166 0.253541
1008.22 9.42221e-09 1.00167 0.252292
1008.2 9.60623e-09 1.00166 0.250592
1008.31 9.59049e-09 1.00168 0.25511
1008.25 9.51945e-09 1.00167 0.252689