# vtk DataFile Version 2.0
Wound Healing Simulation
ASCII
DATASET UNSTRUCTURED_GRID
POINTS 3012 float
69.9759 18.75 4
67.2507 60.3285 4
69.976 18.75 2
73.0099 25.446 4
71.1327 20.9142 4
68.6801 16.6661 4
67.8215 19.9261 3.97384
67.2507 60.3286 2
71.1327 54.0858 4
68.6801 58.3339 4
65.6939 62.2254 4
65.3083 58.9988 3.97256
74.6784 42.3946 4
73.7221 47.2057 4
69.9759 18.75 0
73.0099 25.446 2
68.6801 16.6661 2
71.1327 20.9142 2
67.8222 19.93 2
74.6792 32.6053 4
73.7222 27.7943 4
72.1454 23.1494 4
70.6114 26.2216 3.97376
68.882 21.9577 3.97409
67.2507 14.6715 4
66.6328 17.973 3.97269
65.7624 21.0371 3.96258
67.2507 60.3285 0
71.1327 54.0858 2
68.6801 58.3339 2
65.694 62.2255 2
65.3096 58.9944 2
72.1454 51.8506 4
69.9759 56.25 4
68.8324 53.1142 3.97388
64.0165 64.0165 4
66.6066 57.1328 3.97369
63.8815 60.7622 3.97044
63.489 57.7627 3.96262
60.3285 67.2507 4
74.6792 42.3947 2
73.7222 47.2057 2
74.9194 39.9526 4
74.2788 44.8158 4
72.166 42.0857 3.9752
73.0099 49.554 4
71.2466 46.5984 3.97375
73.0099 25.446 0
71.1327 20.9142 0
68.6801 16.6661 0
67.8215 19.9261 0.0261613
74.6792 32.6053 2
73.7222 27.7943 2
67.2508 14.6715 2
72.1455 23.1494 2
70.6108 26.2224 2
66.6341 17.9776 2
68.8822 21.9605 2
65.7603 21.0392 2
74.9197 35.0474 4
74.2794 30.1841 4
72.1828 32.9447 3.97572
71.2758 28.4326 3.97389
69.8122 24.0595 3.97387
68.3293 26.9582 3.96404
66.7321 22.9432 3.96308
65.694 12.7746 4
65.3192 16.1063 3.97146
64.6812 19.2081 3.96189
63.7543 22.087 3.96423
71.1327 54.0858 0
65.6939 62.2254 0
68.6801 58.3339 0
65.3083 58.9988 0.0274385
72.1455 51.8506 2
69.9759 56.25 2
68.8327 53.1112 2
64.0165 64.0165 2
66.6078 57.1284 2
63.8826 60.7573 2
63.4829 57.7612 2
62.2254 65.694 4
58.8911 65.4123 3.98099
69.7653 50.99 3.97355
67.7796 55.1677 3.97398
66.6114 52.2002 3.96314
62.332 62.4243 3.97538
64.635 56.0228 3.96294
62.1931 59.3889 3.96364
61.7318 56.6373 3.96065
58.3339 68.6801 4
60.3285 67.2508 2
73.7221 47.2057 0
74.6784 42.3946 0
74.9197 39.9526 2
74.2794 44.8159 2
72.1652 42.0855 2
73.0099 49.554 2
71.2458 46.5977 2
75 37.5 4
72.4034 39.8027 3.97644
71.7801 44.353 3.97466
69.7976 41.7894 3.96612
70.572 48.8143 3.97349
68.8958 46.0115 3.96538
74.6792 32.6053 0
73.7222 27.7943 0
67.2507 14.6715 0
72.1454 23.1494 0
70.6114 26.2216 0.0262354
68.882 21.9577 0.0259054
66.6328 17.973 0.0273122
65.7624 21.0371 0.0374155
74.9197 35.0474 2
74.2794 30.1841 2
72.182 32.9447 2
71.275 28.4329 2
65.694 12.7745 2
65.3205 16.1111 2
69.812 24.0613 2
68.3327 26.959 2
64.6751 19.2107 2
66.7326 22.9449 2
63.7532 22.0879 2
72.4113 35.2253 3.97656
71.8017 30.6778 3.97498
69.8341 33.2723 3.96629
68.9568 29.0435 3.96482
67.5866 24.9203 3.96349
66.0478 27.6742 3.96975
64.0165 10.9835 4
64.6168 23.8786 3.96635
63.8849 14.3319 3.96897
63.4958 17.4604 3.96076
62.7791 20.376 3.96217
61.8514 23.0369 3.96957
60.6803 11.1023 3.97619
57.6046 11.4787 3.96793
72.1454 51.8506 0
69.9759 56.25 0
68.8324 53.1142 0.0261186
64.0165 64.0165 0
63.8815 60.7622 0.029561
66.6066 57.1328 0.026312
63.489 57.7627 0.03738
62.2255 65.694 2
58.8933 65.4075 2
69.7651 50.988 2
67.7803 55.1638 2
66.6115 52.1988 2
62.334 62.4188 2
64.628 56.0206 2
62.1898 59.389 2
61.7284 56.6372 2
60.6652 63.9728 3.97802
57.0215 66.7332 3.98357
57.5502 63.6677 3.9715
67.4721 50.1689 3.96373
65.6681 54.1644 3.96284
64.3758 51.3372 3.96631
60.7667 60.9154 3.96688
62.7013 55.022 3.96338
60.5897 58.1152 3.95865
60.1598 55.7091 3.96521
56.25 69.9759 4
58.3339 68.6801 2
60.3285 67.2507 0
58.9176 9.66012 3.97811
62.2254 9.30607 4
73.0099 49.554 0
74.2788 44.8158 0
71.2466 46.5984 0.0262532
72.166 42.0857 0.0247981
74.9194 39.9526 0
75 37.5 2
72.4031 39.8025 2
71.7796 44.3525 2
69.7967 41.7891 2
70.5715 48.8131 2
68.8998 46.0111 2
72.4869 37.5128 3.97611
70.0353 39.6581 3.96674
69.4232 43.9061 3.96602
67.4764 41.486 3.97469
68.2371 48.1012 3.96446
66.5513 45.41 3.97241
74.9197 35.0474 0
74.2794 30.1841 0
72.1828 32.9447 0.0242821
71.2758 28.4326 0.0261083
65.694 12.7746 0
65.3192 16.1063 0.0285369
69.8122 24.0595 0.0261263
68.3293 26.9582 0.0359639
66.7321 22.9432 0.0369155
64.6812 19.2081 0.0381138
63.7543 22.087 0.0357681
72.4111 35.2251 2
71.8013 30.678 2
69.8333 33.2727 2
68.959 29.0441 2
64.0165 10.9835 2
63.8864 14.3374 2
63.4903 17.4621 2
67.5886 24.9216 2
66.0455 27.6753 2
62.7791 20.3763 2
64.6146 23.8798 2
61.8498 23.0376 2
60.6828 11.1075 2
57.6048 11.4715 2
70.0523 35.3949 3.96689
69.4607 31.1539 3.96536
67.5408 33.6069 3.97408
66.6344 29.6547 3.97162
65.3789 25.744 3.96813
63.8615 28.3298 3.97602
62.3371 12.6592 3.97422
62.5965 24.7259 3.97221
62.1871 15.8038 3.96365
61.7013 18.7428 3.95961
60.988 21.4414 3.96591
60.0831 23.8606 3.97321
59.2379 12.8132 3.96364
55.8673 10.2651 3.97318
56.392 13.1783 3.96751
69.7653 50.99 0.0264463
62.2254 65.694 0
58.8911 65.4123 0.0190112
67.7796 55.1677 0.0260153
66.6114 52.2002 0.0368586
62.332 62.4243 0.0246202
62.1931 59.3889 0.0363556
64.635 56.0228 0.0370619
61.7318 56.6373 0.0393541
60.6676 63.9696 2
57.0246 66.7295 2
57.551 63.6718 2
67.4736 50.1678 2
65.6655 54.1626 2
64.3743 51.3365 2
60.7639 60.9165 2
62.701 55.0222 2
60.5878 58.1162 2
60.1582 55.7089 2
55.0676 67.9304 3.98617
59.2122 62.333 3.96716
55.798 64.8915 3.97299
56.3146 62.0386 3.97476
65.1603 49.3633 3.96832
63.5597 53.2438 3.96474
62.1431 50.5642 3.97092
59.2997 59.5159 3.9595
60.8607 54.2268 3.96783
59.1266 56.9294 3.96074
59.0085 55.0833 3.9683
48.0993 68.5724 3.98209
50.9453 69.9307 3.98847
54.0858 71.1327 4
56.25 69.976 2
58.3339 68.6801 0
57.0549 8.33921 3.9796
60.3285 7.74928 4
58.9206 9.66434 2
62.2255 9.30602 2
70.572 48.8143 0.0265114
71.7801 44.353 0.0253436
68.8958 46.0115 0.0346197
69.7976 41.7894 0.0338819
72.4034 39.8027 0.0235574
75 37.5 0
72.4861 37.5126 2
70.0351 39.6581 2
69.4232 43.9058 2
67.4736 41.4856 2
68.2393 48.1004 2
66.5485 45.409 2
70.1235 37.5234 3.96692
67.7212 39.5084 3.97463
67.0848 43.4497 3.97415
65.2718 41.1845 3.97644
65.8981 47.3793 3.97041
64.3371 44.7878 3.97624
72.4113 35.2253 0.0234407
71.8017 30.6778 0.0250217
69.8341 33.2723 0.0337084
68.9568 29.0435 0.0351838
64.0165 10.9835 0
63.8849 14.3319 0.031035
63.4958 17.4604 0.0392425
67.5866 24.9203 0.0365078
66.0478 27.6742 0.0302492
64.6168 23.8786 0.0336527
62.7791 20.376 0.037833
61.8514 23.0369 0.0304326
60.6803 11.1023 0.0238088
57.6046 11.4787 0.032074
70.052 35.3952 2
69.4602 31.1545 2
67.5387 33.6074 2
66.6329 29.6555 2
62.3394 12.6647 2
62.1847 15.8047 2
61.7005 18.7429 2
65.3765 25.7452 2
63.8585 28.3311 2
60.9876 21.4414 2
62.5944 24.7269 2
60.0821 23.8616 2
59.2373 12.8133 2
56.3926 13.1753 2
55.8689 10.2662 2
67.7599 35.5567 3.97431
67.1451 31.6459 3.97346
65.4308 33.9574 3.97638
64.3726 30.2563 3.97595
63.2657 26.4963 3.97459
61.8495 28.8847 3.97573
60.7664 14.2496 3.96455
60.6742 25.4671 3.97493
60.5415 17.1821 3.95793
59.9991 19.9233 3.962
59.3295 22.3992 3.96877
58.5547 24.4889 3.97418
54.0322 9.1559 3.97083
57.8901 14.3865 3.96143
54.7742 12.0747 3.96999
55.2839 14.7301 3.96057
67.4721 50.1689 0.0362682
57.0215 66.7332 0.0164258
60.6652 63.9728 0.0219772
57.5502 63.6677 0.0284977
65.6681 54.1644 0.0371566
64.3758 51.3372 0.0336923
60.7667 60.9154 0.033118
60.5897 58.1152 0.0413474
62.7013 55.022 0.0366243
60.1598 55.7091 0.0347892
55.0707 67.9278 2
59.2114 62.3368 2
55.7994 64.8911 2
56.3129 62.0386 2
65.1581 49.3623 2
63.5592 53.2435 2
62.142 50.5636 2
59.3066 59.5216 2
60.8614 54.2269 2
59.1342 56.9315 2
59.0147 55.0846 2
53.0395 68.9988 3.98726
53.9624 66.0021 3.97518
57.862 60.8265 3.96645
54.6683 63.1583 3.96957
55.1887 60.5582 3.97511
62.8796 48.5792 3.97337
61.4809 52.4883 3.96931
59.849 49.8926 3.97301
57.9121 58.1918 3.95955
59.0392 53.8368 3.9703
57.8553 55.6959 3.96304
50.1054 67.8489 3.98024
47.4593 66.5667 3.97627
46.0534 69.152 3.98404
48.1008 68.5717 2
48.7995 70.7224 3.98949
50.948 69.9297 2
51.8506 72.1454 4
54.0858 71.1327 2
56.25 69.9759 0
55.0996 7.14336 3.98376
58.3339 6.31992 4
57.0582 8.34387 2
60.3286 7.74926 2
58.9176 9.66012 0.0218906
62.2254 9.30607 0
68.2371 48.1012 0.0355448
69.4232 43.9061 0.033983
66.5513 45.41 0.0275915
67.4764 41.486 0.0253101
70.0353 39.6581 0.0332552
72.4869 37.5128 0.0238946
70.1227 37.5235 2
67.718 39.5082 2
67.0834 43.449 2
65.2693 41.1842 2
65.8958 47.3783 2
64.3349 44.7868 2
67.8218 37.5247 3.97445
65.5132 39.3598 3.97655
64.8802 42.9811 3.97616
63.3523 40.8933 3.97665
63.6425 46.6438 3.97539
62.3624 44.1354 3.97596
70.0523 35.3949 0.033109
69.4607 31.1539 0.0346354
67.5408 33.6069 0.0259224
66.6344 29.6547 0.028378
62.3371 12.6592 0.0257812
62.1871 15.8038 0.0363524
61.7013 18.7428 0.0403926
65.3789 25.744 0.0318708
63.8615 28.3298 0.0239761
62.5965 24.7259 0.0277903
60.988 21.4414 0.0340877
60.0831 23.8606 0.0267881
59.2379 12.8132 0.0363575
56.392 13.1783 0.0324885
55.8673 10.2651 0.0268167
67.7573 35.5571 2
67.1437 31.6466 2
65.427 33.9579 2
64.3704 30.2572 2
60.7651 14.2502 2
60.533 17.1834 2
59.9968 19.9234 2
63.2636 26.4975 2
61.8477 28.8851 2
59.3322 22.3995 2
60.6728 25.4685 2
58.5517 24.4913 2
57.8896 14.3866 2
55.2844 14.7266 2
54.035 9.15327 2
54.773 12.0751 2
65.6119 35.684 3.97637
64.9 32.2 3.97581
63.9264 34.2864 3.97628
62.1682 30.7197 3.97574
61.2586 27.193 3.97538
60.3548 29.267 3.97587
59.2698 15.722 3.95784
58.8647 25.9673 3.97559
58.9578 18.4565 3.95927
58.4283 21.0007 3.96358
57.8776 23.2674 3.97016
57.505 24.8565 3.9756
52.1088 8.16494 3.97384
53.0448 11.073 3.96759
56.6276 15.8244 3.95752
53.7902 13.76 3.97463
54.3143 16.1028 3.95946
55.0676 67.9304 0.0138303
65.1603 49.3633 0.0316784
55.798 64.8915 0.0270072
59.2122 62.333 0.0328372
56.3146 62.0386 0.0252355
63.5597 53.2438 0.0352613
62.1431 50.5642 0.0290841
59.2997 59.5159 0.0405003
59.1266 56.9294 0.0392606
60.8607 54.2268 0.0321734
59.0085 55.0833 0.0317033
53.0425 68.997 2
53.964 66.0007 2
57.8626 60.8287 2
54.6677 63.1596 2
55.1862 60.5577 2
62.878 48.5784 2
61.481 52.4881 2
59.8503 49.8923 2
57.9139 58.194 2
59.0442 53.8376 2
57.8518 55.6945 2
52.0663 66.9904 3.97833
52.9429 64.1891 3.97405
56.6029 59.4317 3.96118
53.6529 61.5531 3.97281
[...]
POINT_DATA 3012
SCALARS rho_c_phif_kappa float 4
LOOKUP_TABLE default
1000 0 1.00218 0.271147
1000 0 1.00177 0.271514
1000 0 1.00218 0.271278
1000 0 1.00218 0.271631
1000 0 1.00218 0.271277
1000 0 1.00218 0.271114
1011.19 1.23333e-08 1.00255 0.269798
1000 0 1.00177 0.27154
1000 0 1.00177 0.272166
1000 0 1.00177 0.271797
1000 0 1.00218 0.271069
1011.14 1.20837e-08 1.00276 0.269862
1000 0 1.00217 0.272123
1000 0 1.00217 0.27289
1000 0 1.00218 0.27139
1000 0 1.00217 0.272142
1000 0 1.00218 0.271133
1000 0 1.00218 0.271548
1011.06 1.23697e-08 1.00255 0.269764
1000 0 1.00176 0.272171
1000 0 1.00217 0.271756
1000 0 1.00218 0.271457
1011.14 1.24779e-08 1.00254 0.270859
1011.17 1.23912e-08 1.00255 0.270184
1000 0 1.00219 0.271175
1011.22 1.22767e-08 1.00256 0.269388
1012.3 1.41096e-08 1.00292 0.265414
1000 0 1.00177 0.271591
1000 0 1.00197 0.27177
1000 0 1.00197 0.271457
1000 0 1.00177 0.27172
1011.13 1.21283e-08 1.00276 0.269768
1000 0 1.00218 0.271504
1000 0 1.00218 0.27103
1011.18 1.24141e-08 1.00255 0.269834
1000 0 1.00177 0.272366
1011.14 1.21817e-08 1.00255 0.269809
1011.19 1.20349e-08 1.00277 0.269778
1012.32 1.40706e-08 1.00293 0.265313
1000 0 1.00177 0.272612
1000 0 1.00176 0.272174
1000 0 1.00197 0.272477
1000 0 1.00176 0.272223
1000 0 1.00217 0.273029
1011.09 1.25029e-08 1.00274 0.27093
1000 0 1.00177 0.272758
1011.16 1.25377e-08 1.00254 0.270495
1000 0 1.00217 0.272681
1000 0 1.00218 0.271821
1000 0 1.00219 0.271134
1011.19 1.23333e-08 1.00255 0.269731
1000 0 1.00197 0.272505
1000 0 1.00217 0.272323
1000 0 1.00219 0.271132
1000 0 1.00218 0.271867
1010.91 1.25108e-08 1.00254 0.270596
1011.15 1.2317e-08 1.00256 0.26945
1010.99 1.24245e-08 1.00255 0.270063
1012.32 1.41058e-08 1.00292 0.265254
1000 0 1.00176 0.272234
1000 0 1.00217 0.271857
1011.08 1.24753e-08 1.00253 0.271318
1011.13 1.24955e-08 1.00254 0.271069
1011.15 1.24427e-08 1.00254 0.270541
1012.27 1.41181e-08 1.00291 0.266779
1012.29 1.4113e-08 1.00291 0.265492
1000 0 1.00219 0.271447
1011.26 1.22288e-08 1.00256 0.268969
1012.32 1.41085e-08 1.00293 0.26505
1012.18 1.40189e-08 1.0029 0.259264
1000 0 1.00177 0.271587
1000 0 1.00177 0.271932
1000 0 1.00177 0.271444
1011.14 1.20837e-08 1.00276 0.269684
1000 0 1.00177 0.271756
1000 0 1.00177 0.271456
1011.01 1.24482e-08 1.00275 0.270029
1000 0 1.00198 0.271913
1011.07 1.22219e-08 1.00276 0.269856
1011.22 1.20822e-08 1.00266 0.269654
1012.32 1.40665e-08 1.00293 0.26548
1000 0 1.00177 0.272301
1011.5 1.20886e-08 1.0028 0.270505
1011.2 1.24918e-08 1.00275 0.270231
1011.16 1.2303e-08 1.00276 0.269935
1012.29 1.41159e-08 1.00292 0.265317
1011.27 1.20265e-08 1.00257 0.269609
1012.31 1.40824e-08 1.00293 0.265004
1012.35 1.40807e-08 1.00294 0.265683
1012.22 1.40643e-08 1.00291 0.260065
1000 0 1.00177 0.272867
1000 0 1.00177 0.272806
1000 0 1.00177 0.272001
1000 0 1.00176 0.272165
1000 0 1.00176 0.272211
1000 0 1.00197 0.272576
1010.78 1.25345e-08 1.00264 0.270862
1000 0 1.00197 0.272295
1010.96 1.2571e-08 1.00264 0.270693
1000 0 1.00176 0.27223
1011.07 1.24779e-08 1.00274 0.271087
1011.14 1.25247e-08 1.00254 0.270632
1012.26 1.41153e-08 1.00291 0.267969
1011.18 1.25316e-08 1.00254 0.27036
1012.27 1.41255e-08 1.00291 0.267199
1000 0 1.00217 0.272101
1000 0 1.00217 0.272936
1000 0 1.00219 0.271089
1000 0 1.00217 0.272283
1011.14 1.24779e-08 1.00254 0.27034
1011.17 1.23912e-08 1.00255 0.269948
1011.22 1.22767e-08 1.00255 0.269484
1012.3 1.41096e-08 1.00292 0.265109
1000 0 1.00176 0.272201
1000 0 1.00217 0.272428
1010.78 1.25071e-08 1.00264 0.270949
1010.9 1.25286e-08 1.00254 0.270819
1000 0 1.00198 0.271338
1011.25 1.22735e-08 1.00256 0.269288
1010.95 1.24751e-08 1.00254 0.27033
1012.29 1.4113e-08 1.00291 0.266707
1012.33 1.4105e-08 1.00293 0.264775
1012.31 1.41087e-08 1.00292 0.265588
1012.18 1.40194e-08 1.0029 0.259274
1011.05 1.24656e-08 1.00273 0.271147
1011.11 1.24928e-08 1.00254 0.271165
1012.25 1.41103e-08 1.0029 0.267966
1012.27 1.41185e-08 1.00291 0.267305
1012.28 1.41163e-08 1.00291 0.266049
1012.16 1.39844e-08 1.0029 0.262653
1000 0 1.00177 0.272025
1012.17 1.40036e-08 1.0029 0.259903
1011.32 1.21935e-08 1.00278 0.269113
1012.34 1.41141e-08 1.00293 0.264736
1012.19 1.40366e-08 1.00291 0.258617
1012.12 1.39386e-08 1.0029 0.25559
1011.45 1.21688e-08 1.00279 0.269774
1012.46 1.41738e-08 1.00295 0.268074
1000 0 1.00177 0.271746
1000 0 1.00177 0.271477
1011.18 1.24141e-08 1.00275 0.270074
1000 0 1.00177 0.272285
1011.19 1.20349e-08 1.00277 0.269531
1011.14 1.21817e-08 1.00276 0.26984
1012.32 1.40706e-08 1.00293 0.265626
1000 0 1.00177 0.272473
1011.55 1.21228e-08 1.0028 0.270766
1011 1.25247e-08 1.00265 0.270183
1011.03 1.23397e-08 1.00265 0.269859
1012.31 1.41118e-08 1.00292 0.26534
1011.31 1.20704e-08 1.00278 0.269623
1012.32 1.408e-08 1.00293 0.265164
1012.35 1.40766e-08 1.00294 0.265907
1012.22 1.40656e-08 1.00291 0.259694
1011.36 1.20528e-08 1.00279 0.269861
1011.61 1.21307e-08 1.00281 0.271097
1012.47 1.41556e-08 1.00295 0.269218
1012.28 1.41252e-08 1.00292 0.265854
1012.3 1.41006e-08 1.00292 0.265007
1012.16 1.39886e-08 1.0029 0.259443
1012.39 1.4104e-08 1.00294 0.26664
1012.2 1.40389e-08 1.00291 0.258323
1012.24 1.40878e-08 1.00292 0.261213
1012.15 1.39815e-08 1.00291 0.256491
1000 0 1.00177 0.272969
1000 0 1.00177 0.272942
1000 0 1.00177 0.272907
1011.56 1.21878e-08 1.0028 0.270518
1000 0 1.00177 0.272338
1000 0 1.00177 0.271893
1000 0 1.00177 0.272098
1011.16 1.25377e-08 1.00275 0.270926
1011.09 1.25029e-08 1.00274 0.271111
1000 0 1.00176 0.272229
1000 0 1.00176 0.272231
1011 1.2507e-08 1.00274 0.271106
1011.09 1.25554e-08 1.00264 0.270827
1012.29 1.41109e-08 1.00291 0.26797
1010.96 1.25647e-08 1.00275 0.270641
1012.3 1.41199e-08 1.00291 0.267163
1011.04 1.24586e-08 1.00273 0.271124
1012.25 1.41092e-08 1.00291 0.268194
1012.27 1.41208e-08 1.00291 0.267661
1012.15 1.39765e-08 1.00289 0.265584
1012.28 1.41273e-08 1.00291 0.266556
1012.15 1.3978e-08 1.0029 0.263519
1000 0 1.00176 0.272212
1000 0 1.00217 0.273048
1011.08 1.24753e-08 1.00274 0.270941
1011.13 1.24955e-08 1.00254 0.270557
1000 0 1.00177 0.271845
1011.26 1.22288e-08 1.00256 0.269613
1011.15 1.24427e-08 1.00254 0.270126
1012.27 1.41181e-08 1.00291 0.266618
1012.29 1.4113e-08 1.00292 0.265672
1012.32 1.41085e-08 1.00293 0.264538
1012.18 1.40189e-08 1.0029 0.259281
1010.96 1.24946e-08 1.00273 0.271128
1011.06 1.25237e-08 1.00254 0.270935
1012.29 1.4106e-08 1.00291 0.267874
1012.29 1.41137e-08 1.00291 0.26731
1000 0 1.00177 0.271917
1011.34 1.22405e-08 1.00267 0.26933
1012.35 1.41101e-08 1.00293 0.264665
1012.3 1.41115e-08 1.00291 0.265987
1012.15 1.39848e-08 1.0029 0.262385
1012.19 1.40372e-08 1.00291 0.258607
1012.17 1.4004e-08 1.0029 0.260048
1012.12 1.39387e-08 1.0029 0.255658
1011.53 1.22086e-08 1.00279 0.269652
1012.44 1.41676e-08 1.00295 0.268142
1012.25 1.41071e-08 1.00291 0.268206
1012.27 1.41161e-08 1.00291 0.267664
1012.16 1.39807e-08 1.0029 0.265413
1012.15 1.39795e-08 1.00289 0.263289
1012.16 1.39927e-08 1.0029 0.261015
1012.1 1.39131e-08 1.00289 0.259502
1011.38 1.21719e-08 1.00278 0.269198
1012.11 1.39261e-08 1.00289 0.256356
1012.38 1.41321e-08 1.00294 0.265623
1012.21 1.40572e-08 1.00291 0.258283
1012.13 1.39531e-08 1.0029 0.255015
1012.11 1.39316e-08 1.00289 0.254265
1012.43 1.41562e-08 1.00294 0.267144
1012.48 1.41945e-08 1.00295 0.269076
1012.28 1.41563e-08 1.00293 0.266351
1011.2 1.24918e-08 1.00275 0.270345
1000 0 1.00177 0.272721
1011.5 1.20886e-08 1.0028 0.271085
1011.16 1.2303e-08 1.00275 0.269907
1012.29 1.41159e-08 1.00292 0.265371
1011.27 1.20265e-08 1.00278 0.269647
1012.35 1.40807e-08 1.00293 0.266141
1012.31 1.40824e-08 1.00293 0.265335
1012.22 1.40643e-08 1.00291 0.259335
1011.44 1.20864e-08 1.00279 0.270076
1011.64 1.21557e-08 1.00281 0.271274
1012.46 1.41518e-08 1.00295 0.269324
1012.3 1.41204e-08 1.00292 0.265849
1012.31 1.40974e-08 1.00292 0.265087
1012.16 1.39895e-08 1.0029 0.259435
1012.39 1.41011e-08 1.00294 0.266864
1012.2 1.40398e-08 1.00291 0.258503
1012.24 1.40899e-08 1.00292 0.261175
1012.15 1.39819e-08 1.00291 0.255945
1011.72 1.21703e-08 1.00282 0.271386
1012.43 1.41307e-08 1.00294 0.268241
1012.48 1.41704e-08 1.00295 0.270218
1012.3 1.41773e-08 1.00293 0.267681
1012.15 1.39715e-08 1.0029 0.260409
1012.18 1.40138e-08 1.0029 0.258678
1012.1 1.39206e-08 1.00289 0.255545
1012.26 1.41163e-08 1.00292 0.263452
1012.13 1.39481e-08 1.0029 0.253531
1012.17 1.39943e-08 1.00291 0.256905
1012.14 1.3971e-08 1.0029 0.254603
1012.5 1.42099e-08 1.00295 0.272244
1011.9 1.22455e-08 1.00283 0.271542
1000 0 1.00177 0.273009
1000 0 1.00177 0.272987
1000 0 1.00177 0.272966
1011.67 1.22293e-08 1.00281 0.270903
1000 0 1.00177 0.272594
1011.63 1.22232e-08 1.0028 0.270268
1000 0 1.00177 0.272205
1011.18 1.25316e-08 1.00275 0.270662
1011.14 1.25247e-08 1.00274 0.271053
1012.27 1.41255e-08 1.00291 0.267121
1012.26 1.41153e-08 1.00291 0.267955
1011.07 1.24779e-08 1.00274 0.271132
1000 0 1.00176 0.272228
1010.68 1.24904e-08 1.00273 0.27112
1012.25 1.41052e-08 1.00291 0.268189
1012.27 1.41165e-08 1.00291 0.26762
1012.15 1.39764e-08 1.00289 0.265573
1012.3 1.41221e-08 1.00291 0.266521
1012.15 1.39784e-08 1.0029 0.263603
1012.24 1.41061e-08 1.00291 0.26827
1012.15 1.39725e-08 1.00289 0.265932
1012.15 1.39789e-08 1.00289 0.264915
1012.1 1.3916e-08 1.00289 0.263362
1012.15 1.39745e-08 1.0029 0.261905
1012.1 1.39143e-08 1.00289 0.260999
1011.05 1.24656e-08 1.00273 0.271104
1011.11 1.24928e-08 1.00254 0.270668
1012.25 1.41103e-08 1.00291 0.267798
1012.27 1.41185e-08 1.00291 0.267289
1000 0 1.00177 0.271795
1011.32 1.21935e-08 1.00257 0.269256
1012.34 1.41141e-08 1.00293 0.2646
1012.28 1.41163e-08 1.00291 0.265913
1012.16 1.39844e-08 1.0029 0.262107
1012.17 1.40036e-08 1.00291 0.260201
1012.19 1.40366e-08 1.00291 0.258567
1012.12 1.39386e-08 1.0029 0.255714
1011.45 1.21688e-08 1.00279 0.269514
1012.46 1.41738e-08 1.00295 0.268093
1012.25 1.41031e-08 1.00291 0.268126
1012.27 1.41121e-08 1.00291 0.267675
1012.15 1.39805e-08 1.0029 0.265322
1012.15 1.39797e-08 1.0029 0.263522
1011.41 1.22146e-08 1.00279 0.269204
1012.38 1.41268e-08 1.00294 0.265319
1012.21 1.40583e-08 1.00291 0.258398
1012.16 1.39931e-08 1.0029 0.261157
1012.09 1.39127e-08 1.00289 0.259206
1012.13 1.39537e-08 1.0029 0.254734
1012.11 1.39259e-08 1.00289 0.25637
1012.11 1.39311e-08 1.00289 0.254074
1012.42 1.41551e-08 1.00294 0.267385
1012.28 1.416e-08 1.00293 0.266441
1012.47 1.41912e-08 1.00295 0.268916
1012.15 1.39754e-08 1.0029 0.266011
1012.15 1.39793e-08 1.0029 0.264451
1012.1 1.39185e-08 1.00289 0.263496
1012.09 1.3909e-08 1.00289 0.260353
1012.1 1.39159e-08 1.00289 0.257287
1012.09 1.39035e-08 1.00289 0.256728
1012.41 1.4145e-08 1.00294 0.266449
1012.1 1.39184e-08 1.00289 0.254211
1012.23 1.40844e-08 1.00292 0.260216
1012.14 1.39638e-08 1.0029 0.252843
1012.12 1.39475e-08 1.0029 0.252736
1012.09 1.39056e-08 1.00289 0.252381
1012.49 1.42075e-08 1.00295 0.27028
1012.27 1.41387e-08 1.00293 0.265176
1012.29 1.41738e-08 1.00293 0.267776
1012.24 1.40804e-08 1.00292 0.264802
1012.28 1.41252e-08 1.00292 0.265849
1011.61 1.21307e-08 1.00281 0.271424
1011.36 1.20528e-08 1.00279 0.270309
1012.47 1.41556e-08 1.00295 0.269456
1012.3 1.41006e-08 1.00292 0.265175
1012.16 1.39886e-08 1.0029 0.259422
1012.39 1.4104e-08 1.00294 0.267099
1012.24 1.40878e-08 1.00292 0.261137
1012.2 1.40389e-08 1.00291 0.258671
1012.15 1.39815e-08 1.00291 0.255452
1011.74 1.21901e-08 1.00282 0.271491
1012.42 1.41283e-08 1.00294 0.268242
1012.48 1.41687e-08 1.00295 0.270451
1012.3 1.41793e-08 1.00293 0.267828
1012.15 1.39721e-08 1.0029 0.260415
1012.18 1.40149e-08 1.0029 0.258675
1012.1 1.39203e-08 1.00289 0.255552
1012.26 1.41189e-08 1.00292 0.26377
1012.13 1.39489e-08 1.0029 0.253915
1012.17 1.39949e-08 1.00291 0.256572
1012.14 1.39718e-08 1.0029 0.254965
1011.81 1.22046e-08 1.00282 0.271517
1012.49 1.41826e-08 1.00295 0.271392
1012.28 1.4151e-08 1.00293 0.266069
1012.3 1.41948e-08 1.00293 0.268856
1012.26 1.4101e-08 1.00293 0.266263
1012.1 1.39291e-08 1.00289 0.256583
1012.11 1.39193e-08 1.0029 0.254064
1012.1 1.40107e-08 1.00289 0.252632
1012.19 1.40212e-08 1.00292 0.258115
1012.12 1.39707e-08 1.0029 0.250584
1012.15 1.39827e-08 1.00291 0.253713
1012.49 1.41978e-08 1.00295 0.27225
1012.29 1.42002e-08 1.00293 0.271703
1012.5 1.42249e-08 1.00295 0.272266
1012.5 1.42092e-08 1.00295 0.272251
1011.98 1.22871e-08 1.00261 0.271887
1011.91 1.22607e-08 1.00272 0.271874
1000 0 1.00222 0.272249
1000 0 1.00177 0.272994
1000 0 1.00177 0.272979
1011.8 1.22904e-08 1.00282 0.271265
1000 0 1.00177 0.272839
1011.73 1.22611e-08 1.00281 0.270767
1000 0 1.00177 0.272481
1011.56 1.21878e-08 1.0028 0.270097
1000 0 1.00177 0.272094
1012.28 1.41273e-08 1.00291 0.266488
1012.27 1.41208e-08 1.00291 0.267601
1012.15 1.3978e-08 1.0029 0.26363
1012.15 1.39765e-08 1.00289 0.265566
1012.25 1.41092e-08 1.00291 0.268181
1011.04 1.24586e-08 1.00273 0.271099
1012.28 1.41018e-08 1.00291 0.268271
1012.15 1.39723e-08 1.00289 0.265927
1012.15 1.39791e-08 1.00289 0.26484
1012.1 1.39159e-08 1.00289 0.263282
1012.15 1.39752e-08 1.0029 0.261909
1012.1 1.39141e-08 1.00289 0.260974
1012.15 1.39717e-08 1.00289 0.266047
1012.1 1.39126e-08 1.00289 0.264084
1012.1 1.39113e-08 1.00289 0.262592
1012.1 1.39769e-08 1.00289 0.262488
1012.09 1.39117e-08 1.00289 0.258269
1012.09 1.39192e-08 1.00289 0.258272
1012.25 1.41071e-08 1.00291 0.268052
1012.27 1.41161e-08 1.00291 0.267729
1012.16 1.39807e-08 1.0029 0.265175
1012.15 1.39795e-08 1.0029 0.263782
1011.38 1.21719e-08 1.00279 0.269212
1012.38 1.41321e-08 1.00294 0.264989
1012.21 1.40572e-08 1.00291 0.258514
1012.16 1.39927e-08 1.0029 0.261309
1012.1 1.39131e-08 1.00289 0.258912
1012.11 1.39261e-08 1.00289 0.256384
1012.13 1.39531e-08 1.0029 0.254503
1012.11 1.39316e-08 1.00289 0.253948
1012.43 1.41562e-08 1.00294 0.267633
1012.28 1.41563e-08 1.00293 0.266597
1012.48 1.41945e-08 1.00295 0.268868
1012.15 1.39752e-08 1.0029 0.265943
1012.15 1.39794e-08 1.0029 0.264466
1012.1 1.39182e-08 1.00289 0.263272
1012.09 1.39087e-08 1.00289 0.260625
1012.4 1.41401e-08 1.00294 0.266285
1012.23 1.40861e-08 1.00292 0.260094
1012.14 1.3964e-08 1.0029 0.253116
1012.1 1.39156e-08 1.00289 0.257551
1012.09 1.39034e-08 1.00289 0.256521
1012.12 1.39475e-08 1.0029 0.25247
1012.1 1.39183e-08 1.00289 0.254228
1012.09 1.39055e-08 1.00289 0.252691
1012.27 1.41402e-08 1.00293 0.264876
1012.23 1.40785e-08 1.00292 0.264705
1012.48 1.42054e-08 1.00295 0.27016
1012.29 1.41754e-08 1.00293 0.268228
1012.1 1.39216e-08 1.00289 0.26408
1012.09 1.3906e-08 1.00289 0.262049
1012.09 1.39177e-08 1.00289 0.262504
1012.09 1.39138e-08 1.00289 0.257494
1012.09 1.3922e-08 1.00289 0.255174
1012.08 1.389e-08 1.00289 0.255224
1012.25 1.41115e-08 1.00292 0.263145
1012.09 1.39004e-08 1.00289 0.251978
1012.16 1.39858e-08 1.00291 0.253774
1012.13 1.39639e-08 1.0029 0.249606
1012.11 1.3936e-08 1.00289 0.251301
1012.07 1.38085e-08 1.00289 0.251743
1012.49 1.42259e-08 1.00295 0.271081
1012.29 1.4184e-08 1.00293 0.268788
1012.21 1.40527e-08 1.00292 0.262105
1012.26 1.41036e-08 1.00293 0.266349
1012.23 1.4067e-08 1.00292 0.262365
1011.72 1.21703e-08 1.00282 0.271608
1012.15 1.39715e-08 1.0029 0.260429
1012.48 1.41704e-08 1.00295 0.2707
1012.43 1.41307e-08 1.00294 0.268172
1012.3 1.41773e-08 1.00293 0.267951
1012.18 1.40138e-08 1.0029 0.258664
1012.1 1.39206e-08 1.00289 0.255555
1012.26 1.41163e-08 1.00292 0.264043
1012.17 1.39943e-08 1.00291 0.25604
1012.13 1.39481e-08 1.0029 0.254311
1012.14 1.3971e-08 1.0029 0.255136
1011.82 1.2221e-08 1.00282 0.271574
1012.49 1.41814e-08 1.00295 0.271511
1012.28 1.41513e-08 1.00293 0.266275
1012.3 1.41964e-08 1.00293 0.269178
1012.26 1.41011e-08 1.00293 0.266036
1012.1 1.39302e-08 1.00289 0.256532
1012.11 1.3919e-08 1.0029 0.254062
1012.1 1.40117e-08 1.00289 0.252583
1012.2 1.40226e-08 1.00292 0.258284
1012.12 1.39698e-08 1.0029 0.250945
1012.15 1.39835e-08 1.00291 0.253564
1012.49 1.41892e-08 1.00295 0.272029
1012.31 1.42044e-08 1.00293 0.26986
1012.23 1.40622e-08 1.00292 0.262224
1012.28 1.41273e-08 1.00293 0.267636
1012.24 1.40928e-08 1.00293 0.263668
1012.09 1.39768e-08 1.00289 0.254572
1012.12 1.40067e-08 1.00289 0.250613
1011.98 1.33228e-08 1.00288 0.249739
1012.17 1.40112e-08 1.00291 0.253362
1012.14 1.40486e-08 1.0029 0.249958
1012.49 1.41964e-08 1.00295 0.272269
1012.29 1.41997e-08 1.00293 0.271652
1012.29 1.42016e-08 1.00293 0.271658
1012.29 1.41468e-08 1.00293 0.270562
1012.29 1.42031e-08 1.00293 0.271679
1012.5 1.42415e-08 1.00295 0.272304
1012.5 1.42231e-08 1.00295 0.27226
1012.07 1.23428e-08 1.00262 0.271897
1012.5 1.42099e-08 1.00295 0.272254
1011.99 1.2301e-08 1.00261 0.272095
1000 0 1.00222 0.272183
1011.9 1.22455e-08 1.00261 0.272081
1000 0 1.002 0.272344
1000 0 1.00177 0.272968
1011.92 1.23472e-08 1.00283 0.271575
1011.83 1.23104e-08 1.00282 0.2711
1000 0 1.00177 0.272959
1000 0 1.00177 0.272696
1011.67 1.22293e-08 1.00281 0.270583
1000 0 1.00177 0.272355
1012.15 1.39745e-08 1.0029 0.261909
1012.15 1.39789e-08 1.00289 0.264823
1012.1 1.39143e-08 1.00289 0.260962
1012.1 1.3916e-08 1.00289 0.263201
1012.15 1.39725e-08 1.00289 0.265922
1012.24 1.41061e-08 1.00291 0.268264
1012.15 1.39714e-08 1.00289 0.266051
1012.1 1.39122e-08 1.00289 0.264124
1012.1 1.39108e-08 1.00289 0.262561
1012.1 1.39764e-08 1.00289 0.262362
1012.09 1.3911e-08 1.00289 0.258224
1012.09 1.39187e-08 1.00289 0.258445
1012.1 1.39079e-08 1.00289 0.264349
1012.12 1.40712e-08 1.00289 0.263342
1012.09 1.39888e-08 1.00289 0.260754
1012.05 1.37858e-08 1.00289 0.261633
1012.09 1.39621e-08 1.00289 0.256805
1012.09 1.39252e-08 1.00288 0.257241
1012.15 1.39754e-08 1.00289 0.265883
1012.15 1.39793e-08 1.0029 0.264395
1012.1 1.39185e-08 1.00289 0.263073
1012.09 1.3909e-08 1.00289 0.260895
1012.41 1.4145e-08 1.00294 0.266138
1012.23 1.40844e-08 1.00292 0.260023
1012.14 1.39638e-08 1.00291 0.253367
1012.1 1.39159e-08 1.00289 0.257809
1012.09 1.39035e-08 1.00289 0.256332
1012.1 1.39184e-08 1.00289 0.25425
1012.12 1.39475e-08 1.0029 0.252067
1012.09 1.39056e-08 1.00289 0.252827
1012.27 1.41387e-08 1.00293 0.264586
1012.24 1.40804e-08 1.00292 0.264662
1012.49 1.42075e-08 1.00295 0.270014
1012.29 1.41738e-08 1.00293 0.268297
1012.1 1.39213e-08 1.00289 0.264084
1012.09 1.39057e-08 1.00289 0.262014
1012.09 1.39175e-08 1.00289 0.262435
1012.08 1.39137e-08 1.00289 0.257703
1012.25 1.41141e-08 1.00292 0.262976
1012.16 1.39871e-08 1.00291 0.254191
1012.13 1.39627e-08 1.0029 0.249318
1012.09 1.39216e-08 1.00289 0.25537
1012.08 1.38899e-08 1.00289 0.255129
1012.11 1.39354e-08 1.00289 0.250984
1012.08 1.38998e-08 1.00289 0.251979
1012.06 1.38069e-08 1.00289 0.2519
1012.22 1.40558e-08 1.00292 0.261985
1012.23 1.40672e-08 1.00292 0.262033
1012.25 1.41013e-08 1.00293 0.266541
1012.49 1.42245e-08 1.00295 0.270996
1012.29 1.41845e-08 1.00293 0.26874
1012.1 1.40399e-08 1.00289 0.263123
1012.1 1.39484e-08 1.00289 0.260726
1012.07 1.38476e-08 1.00288 0.255054
1012.06 1.38152e-08 1.00288 0.25352
1012.19 1.40229e-08 1.00292 0.2584
1012.06 1.37793e-08 1.00288 0.248643
1012.15 1.39866e-08 1.00291 0.249526
1012.11 1.39866e-08 1.0029 0.246247
1012.05 1.36852e-08 1.00289 0.250199
1012.5 1.42416e-08 1.00295 0.271563
1012.29 1.41879e-08 1.00294 0.269316
1012.27 1.41211e-08 1.00293 0.26795
1012.21 1.40484e-08 1.00292 0.258939
1012.25 1.40965e-08 1.00293 0.2641
1012.22 1.406e-08 1.00292 0.2594
1011.81 1.22046e-08 1.00282 0.271609
1012.49 1.41826e-08 1.00295 0.271609
1012.1 1.39291e-08 1.00289 0.256477
1012.3 1.41948e-08 1.00293 0.269492
1012.28 1.4151e-08 1.00293 0.266529
1012.26 1.4101e-08 1.00293 0.265825
1012.11 1.39193e-08 1.0029 0.254066
1012.1 1.40107e-08 1.00289 0.252544
1012.19 1.40212e-08 1.00292 0.258507
1012.15 1.39827e-08 1.00291 0.253602
1012.12 1.39707e-08 1.0029 0.251287
1012.49 1.41878e-08 1.00295 0.272078
1012.31 1.42054e-08 1.00293 0.270151
1012.23 1.40619e-08 1.00292 0.262409
1012.28 1.41287e-08 1.00293 0.267739
1012.25 1.40983e-08 1.00293 0.263389
1012.09 1.39704e-08 1.00289 0.25453
1012.12 1.40099e-08 1.00289 0.250641
1011.98 1.33171e-08 1.00288 0.249703
1012.17 1.40121e-08 1.00291 0.253127
1012.14 1.40515e-08 1.0029 0.249641
1012.3 1.42029e-08 1.00293 0.27108