# vtk DataFile Version 2.0
Wound Healing Simulation
ASCII
DATASET UNSTRUCTURED_GRID
POINTS 3012 float
69.9759 18.75 4
67.2507 60.3285 4
69.976 18.75 2
73.0099 25.446 4
71.1327 20.9142 4
68.6801 16.6661 4
67.824 19.9264 3.97878
67.2507 60.3286 2
71.1327 54.0858 4
68.6801 58.3339 4
65.6939 62.2254 4
65.3106 59.0005 3.9779
74.6784 42.3946 4
73.7221 47.2057 4
69.9759 18.75 0
73.0099 25.446 2
68.6801 16.6661 2
71.1327 20.9142 2
67.8245 19.9299 2
74.6792 32.6053 4
73.7222 27.7943 4
72.1454 23.1494 4
70.6129 26.2212 3.97843
68.8842 21.9581 3.97924
67.2507 14.6715 4
66.6354 17.9727 3.97788
65.7924 21.028 3.9679
67.2507 60.3285 0
71.1327 54.0858 2
68.6801 58.3339 2
65.694 62.2255 2
65.3119 58.9959 2
72.1454 51.8506 4
69.9759 56.25 4
68.8348 53.1131 3.97846
64.0165 64.0165 4
66.6092 57.1333 3.9785
63.8836 60.7645 3.97818
63.4959 57.7668 3.96877
60.3285 67.2507 4
74.6792 42.3947 2
73.7222 47.2057 2
74.9194 39.9526 4
74.2788 44.8158 4
72.1673 42.0857 3.97863
73.0099 49.554 4
71.2481 46.598 3.97795
73.0099 25.446 0
71.1327 20.9142 0
68.6801 16.6661 0
67.824 19.9264 0.0212193
74.6792 32.6053 2
73.7222 27.7943 2
67.2508 14.6715 2
72.1455 23.1494 2
70.6127 26.2218 2
66.6364 17.9772 2
68.8845 21.9604 2
65.7916 21.0291 2
74.9197 35.0474 4
74.2794 30.1841 4
72.184 32.9438 3.97894
71.2771 28.4317 3.97824
69.8142 24.0597 3.97902
68.3428 26.9531 3.96737
66.7581 22.9353 3.9676
65.694 12.7746 4
65.3216 16.1049 3.97718
64.7088 19.1992 3.96832
63.8547 22.0487 3.96532
71.1327 54.0858 0
65.6939 62.2254 0
68.6801 58.3339 0
65.3106 59.0005 0.0221036
72.1455 51.8506 2
69.9759 56.25 2
68.835 53.111 2
64.0165 64.0165 2
66.61 57.1291 2
63.8856 60.7604 2
63.4949 57.7665 2
62.2254 65.694 4
58.8932 65.4136 3.98774
69.7674 50.9889 3.9782
67.7822 55.1671 3.97857
66.6449 52.2077 3.96717
62.3339 62.4257 3.98066
64.6562 56.0286 3.9684
62.198 59.3956 3.96838
61.8125 56.6705 3.96418
58.3339 68.6801 4
60.3285 67.2508 2
73.7221 47.2057 0
74.6784 42.3946 0
74.9197 39.9526 2
74.2794 44.8159 2
72.1667 42.0855 2
73.0099 49.554 2
71.2478 46.5977 2
75 37.5 4
72.4046 39.8024 3.97941
71.7815 44.3529 3.97863
69.8008 41.79 3.96818
70.5737 48.8135 3.97786
68.9082 46.0144 3.96754
74.6792 32.6053 0
73.7222 27.7943 0
67.2507 14.6715 0
72.1454 23.1494 0
70.6129 26.2212 0.0215652
68.8842 21.9581 0.0207578
66.6354 17.9727 0.0221199
65.7924 21.028 0.0320988
74.9197 35.0474 2
74.2794 30.1841 2
72.1834 32.9441 2
71.2769 28.4322 2
65.694 12.7745 2
65.3232 16.11 2
69.8142 24.0609 2
68.3426 26.9538 2
64.7079 19.2001 2
66.7576 22.9362 2
63.8547 22.0492 2
72.4124 35.2245 3.97941
71.803 30.6767 3.97889
69.837 33.2696 3.96834
68.9624 29.0397 3.96763
67.6071 24.9138 3.96743
66.1506 27.6458 3.96704
64.0165 10.9835 4
64.7176 23.8429 3.96595
63.8877 14.3297 3.97794
63.508 17.4544 3.96882
62.8799 20.335 3.96448
62.0046 22.9753 3.96723
60.6823 11.1002 3.98235
57.6096 11.4562 3.97364
72.1454 51.8506 0
69.9759 56.25 0
68.8348 53.1131 0.0215361
64.0165 64.0165 0
63.8836 60.7645 0.0218151
66.6092 57.1333 0.021496
63.4959 57.7668 0.0312349
62.2255 65.694 2
58.8952 65.4119 2
69.7673 50.9879 2
67.7826 55.1639 2
66.6442 52.2069 2
62.336 62.4221 2
64.6552 56.0279 2
62.197 59.3963 2
61.8124 56.6707 2
60.6668 63.9752 3.98337
57.0242 66.7347 3.9894
57.5559 63.686 3.97575
67.503 50.1756 3.96698
65.6973 54.1713 3.96763
64.4925 51.3725 3.96547
60.7691 60.9263 3.97112
62.8003 55.0575 3.9647
60.648 58.1443 3.96428
60.298 55.7644 3.96422
56.25 69.9759 4
58.3339 68.6801 2
60.3285 67.2507 0
58.9198 9.6579 3.98461
62.2254 9.30607 4
73.0099 49.554 0
74.2788 44.8158 0
71.2481 46.598 0.0220484
72.1673 42.0857 0.0213724
74.9194 39.9526 0
75 37.5 2
72.4045 39.8025 2
71.7814 44.3525 2
69.8001 41.7897 2
70.5735 48.8131 2
68.9081 46.0138 2
72.488 37.5123 3.97902
70.0383 39.658 3.96839
69.4269 43.9075 3.96808
67.5562 41.4941 3.96923
68.2616 48.1063 3.96709
66.6564 45.4309 3.96808
74.9197 35.0474 0
74.2794 30.1841 0
72.184 32.9438 0.0210551
71.2771 28.4317 0.021762
65.694 12.7746 0
65.3216 16.1049 0.0228209
69.8142 24.0597 0.0209804
68.3428 26.9531 0.032633
66.7581 22.9353 0.0324023
64.7088 19.1992 0.0316787
63.8547 22.0487 0.0346788
72.4124 35.2246 2
71.8029 30.6773 2
69.8363 33.2701 2
68.9623 29.0403 2
64.0165 10.9835 2
63.8898 14.3344 2
63.507 17.4552 2
67.6067 24.9146 2
66.1508 27.6462 2
62.8803 20.3353 2
64.7174 23.8435 2
62.0037 22.9759 2
60.685 11.1038 2
57.6115 11.4555 2
70.055 35.393 3.96841
69.4639 31.1508 3.96802
67.6186 33.5962 3.96878
66.7274 29.6325 3.96752
65.4809 25.7115 3.96651
64.0249 28.2825 3.97135
62.3395 12.6578 3.97998
62.7558 24.6683 3.96871
62.1937 15.7971 3.96941
61.7979 18.7007 3.96398
61.1395 21.3754 3.96517
60.2772 23.7779 3.97016
59.2425 12.798 3.97167
55.8722 10.2417 3.97624
56.3999 13.146 3.97089
69.7674 50.9889 0.0218026
62.2254 65.694 0
58.8932 65.4136 0.0122588
67.7822 55.1671 0.0214282
66.6449 52.2077 0.0328272
62.3339 62.4257 0.0193398
62.198 59.3956 0.0316155
64.6562 56.0286 0.0316013
61.8125 56.6705 0.0358174
60.6689 63.9726 2
57.0258 66.7336 2
57.5565 63.6865 2
67.5025 50.1748 2
65.6964 54.1705 2
64.4926 51.3722 2
60.768 60.9275 2
62.801 55.0575 2
60.6477 58.1446 2
60.2986 55.7646 2
55.0702 67.9316 3.99093
59.2155 62.3522 3.97231
55.8029 64.9052 3.98015
56.3213 62.0681 3.97323
65.2783 49.3955 3.96627
63.6724 53.2806 3.96495
62.3267 50.6211 3.96765
59.3239 59.5388 3.96511
61.0187 54.2843 3.96595
59.2615 56.9874 3.96303
59.1885 55.153 3.96647
48.1007 68.5767 3.9865
50.9479 69.9313 3.99131
54.0858 71.1327 4
56.25 69.976 2
58.3339 68.6801 0
57.0572 8.33715 3.98628
60.3285 7.74928 4
58.9228 9.66052 2
62.2255 9.30602 2
70.5737 48.8135 0.0221433
71.7815 44.3529 0.0213745
68.9082 46.0144 0.0324582
69.8008 41.79 0.0318249
72.4046 39.8024 0.0205943
75 37.5 0
72.4874 37.5124 2
70.0382 39.6579 2
69.4267 43.9071 2
67.5559 41.4938 2
68.2613 48.1056 2
66.6556 45.4305 2
70.1264 37.5224 3.96845
67.7983 39.5113 3.96928
67.1747 43.4637 3.96862
65.4312 41.1992 3.97539
66.0128 47.4067 3.96731
64.5093 44.8256 3.97214
72.4124 35.2245 0.0205941
71.803 30.6767 0.0211061
69.837 33.2696 0.031659
68.9624 29.0397 0.0323677
64.0165 10.9835 0
63.8877 14.3297 0.0220606
63.508 17.4544 0.0311838
67.6071 24.9138 0.0325723
66.1506 27.6458 0.032962
64.7176 23.8429 0.034053
62.8799 20.335 0.0355188
62.0046 22.9753 0.0327662
60.6823 11.1002 0.0176464
57.6096 11.4562 0.0263627
70.0549 35.3932 2
69.4637 31.1513 2
67.6185 33.5965 2
66.7271 29.6329 2
62.3421 12.6624 2
62.1927 15.7976 2
61.7984 18.7008 2
65.4809 25.712 2
64.0231 28.2832 2
61.1382 21.376 2
62.7548 24.6689 2
60.2768 23.7788 2
59.244 12.7966 2
56.4008 13.1436 2
55.8736 10.2412 2
67.8385 35.5507 3.96927
67.2256 31.6299 3.96837
65.5824 33.9391 3.97464
64.5385 30.2152 3.97221
63.4267 26.4436 3.97003
62.062 28.8191 3.9757
60.7708 14.2397 3.97062
60.8807 25.3863 3.97252
60.6002 17.148 3.96486
60.1572 19.8519 3.96287
59.5207 22.312 3.9667
58.7807 24.3863 3.97306
54.0358 9.1428 3.97838
57.9022 14.3615 3.96984
54.782 12.0331 3.97317
55.3022 14.689 3.96804
67.503 50.1756 0.0330153
57.0242 66.7347 0.0105977
60.6668 63.9752 0.0166317
57.5559 63.686 0.0242479
65.6973 54.1713 0.0323658
64.4925 51.3725 0.0345261
60.7691 60.9263 0.0288781
60.648 58.1443 0.0357165
62.8003 55.0575 0.0352985
60.298 55.7644 0.0357835
55.0714 67.9311 2
59.2161 62.355 2
55.8034 64.9056 2
56.3207 62.0704 2
65.2782 49.3951 2
63.6727 53.2804 2
62.3261 50.6207 2
59.3229 59.5398 2
61.0193 54.2843 2
59.2643 56.9878 2
59.1906 55.1531 2
53.0422 68.9995 3.99117
53.9653 66.0102 3.98299
57.8729 60.8485 3.97065
54.6804 63.198 3.9756
55.2011 60.5861 3.97066
63.064 48.631 3.96923
61.6514 52.5462 3.96676
60.0873 49.9708 3.96978
57.9995 58.2383 3.96571
59.2313 53.9096 3.96757
58.0481 55.7741 3.96189
50.1074 67.855 3.98593
47.4618 66.5759 3.98236
46.0545 69.1557 3.98689
48.1009 68.5773 2
48.8019 70.7226 3.99148
50.9488 69.9311 2
51.8506 72.1454 4
54.0858 71.1327 2
56.25 69.9759 0
55.1019 7.14156 3.98871
58.3339 6.31992 4
57.0596 8.33874 2
60.3286 7.74926 2
58.9198 9.6579 0.0153869
62.2254 9.30607 0
68.2616 48.1063 0.0329072
69.4269 43.9075 0.0319241
66.6564 45.4309 0.0319178
67.5562 41.4941 0.0307655
70.0383 39.658 0.0316136
72.488 37.5123 0.0209782
70.1258 37.5225 2
67.7975 39.5111 2
67.1754 43.4634 2
65.4292 41.1988 2
66.013 47.4063 2
64.5073 44.825 2
67.8989 37.5231 3.96933
65.6712 39.3655 3.97587
65.0426 43.0085 3.9738
63.5504 40.9102 3.97688
63.8232 46.6893 3.97056
62.5864 44.1813 3.97609
70.055 35.393 0.0315917
69.4639 31.1508 0.0319783
67.6186 33.5962 0.0312232
66.7274 29.6325 0.0324795
62.3395 12.6578 0.0200179
62.1937 15.7971 0.0305938
61.7979 18.7007 0.0360244
65.4809 25.7115 0.0334866
64.0249 28.2825 0.028646
62.7558 24.6683 0.0312929
61.1395 21.3754 0.0348278
60.2772 23.7779 0.0298374
59.2425 12.798 0.0283328
56.3999 13.146 0.0291064
55.8722 10.2417 0.023757
67.8376 35.5509 2
67.2262 31.6302 2
65.5797 33.9395 2
64.5364 30.2157 2
60.7709 14.2404 2
60.5994 17.1484 2
60.1578 19.8521 2
63.4255 26.4442 2
62.0596 28.82 2
59.522 22.3127 2
60.8799 25.3871 2
58.78 24.3876 2
57.9026 14.3596 2
55.3029 14.6883 2
54.0371 9.14132 2
54.7831 12.0301 2
65.7644 35.6734 3.97557
65.059 32.1723 3.97305
64.1068 34.2677 3.97695
62.3828 30.6728 3.9767
61.4668 27.1183 3.97371
60.6049 29.1945 3.97707
59.3 15.6937 3.966
59.1048 25.8625 3.97583
59.0907 18.3888 3.96213
58.6239 20.9084 3.96345
58.0931 23.1627 3.96779
57.747 24.742 3.97439
52.1112 8.15807 3.98185
53.0546 11.0322 3.97432
56.6618 15.7813 3.96779
53.8011 13.7168 3.97156
54.3573 16.0476 3.96745
55.0702 67.9316 0.00906663
65.2783 49.3955 0.033731
55.8029 64.9052 0.0198547
59.2155 62.3522 0.0276946
56.3213 62.0681 0.0267704
63.6724 53.2806 0.0350511
62.3267 50.6211 0.0323523
59.3239 59.5388 0.0348898
59.2615 56.9874 0.036968
61.0187 54.2843 0.0340515
59.1885 55.153 0.0335257
53.0432 68.9992 2
53.9658 66.0108 2
57.8721 60.8508 2
54.6801 63.1987 2
55.2008 60.5878 2
63.063 48.6304 2
61.6517 52.5461 2
60.0873 49.9702 2
57.9985 58.2392 2
59.2338 53.9096 2
58.0457 55.7729 2
52.0687 66.9978 3.98536
52.9515 64.2111 3.97961
56.6337 59.462 3.96796
53.6735 61.6031 3.97523
[...]
POINT_DATA 3012
SCALARS rho_c_phif_kappa float 4
LOOKUP_TABLE default
1000 0 1.00172 0.265144
1000 0 1.00143 0.265478
1000 0 1.00172 0.265086
1000 0 1.00171 0.265467
1000 0 1.00171 0.2652
1000 0 1.00172 0.265183
1009.59 1.06927e-08 1.00196 0.264205
1000 0 1.00143 0.265511
1000 0 1.00143 0.265699
1000 0 1.00143 0.265491
1000 0 1.00172 0.264958
1009.56 1.04917e-08 1.00212 0.264252
1000 0 1.00171 0.265721
1000 0 1.00171 0.26628
1000 0 1.00172 0.265005
1000 0 1.00171 0.265754
1000 0 1.00172 0.265014
1000 0 1.00171 0.265271
1009.54 1.07173e-08 1.00196 0.264277
1000 0 1.00143 0.265844
1000 0 1.00171 0.265568
1000 0 1.00171 0.265325
1009.54 1.08014e-08 1.00196 0.264851
1009.57 1.07373e-08 1.00196 0.264414
1000 0 1.00172 0.265286
1009.61 1.06479e-08 1.00197 0.263981
1010.16 1.17229e-08 1.0022 0.262377
1000 0 1.00143 0.265587
1000 0 1.00157 0.265443
1000 0 1.00157 0.265249
1000 0 1.00143 0.265699
1009.59 1.05222e-08 1.00212 0.264209
1000 0 1.00171 0.265269
1000 0 1.00172 0.264865
1009.58 1.07541e-08 1.00197 0.264247
1000 0 1.00143 0.265908
1009.55 1.05714e-08 1.00197 0.264317
1009.6 1.04514e-08 1.00212 0.264337
1010.19 1.17246e-08 1.0022 0.262443
1000 0 1.00143 0.26617
1000 0 1.00143 0.265838
1000 0 1.00157 0.266024
1000 0 1.00143 0.265865
1000 0 1.00171 0.266361
1009.49 1.0817e-08 1.0021 0.264921
1000 0 1.00143 0.266243
1009.55 1.08473e-08 1.00196 0.264642
1000 0 1.00171 0.266087
1000 0 1.00171 0.265341
1000 0 1.00172 0.264828
1009.59 1.06927e-08 1.00196 0.264351
1000 0 1.00157 0.266089
1000 0 1.00171 0.265895
1000 0 1.00172 0.265052
1000 0 1.00171 0.265525
1009.37 1.0823e-08 1.00196 0.26471
1009.61 1.06759e-08 1.00197 0.264133
1009.47 1.0759e-08 1.00196 0.264402
1010.17 1.17189e-08 1.0022 0.262259
1000 0 1.00143 0.265887
1000 0 1.00171 0.265638
1009.48 1.07949e-08 1.00196 0.265182
1009.52 1.08131e-08 1.00195 0.264992
1009.55 1.07759e-08 1.00196 0.264638
1010.13 1.17054e-08 1.00219 0.262626
1010.15 1.17158e-08 1.0022 0.262237
1000 0 1.00172 0.265481
1009.65 1.06091e-08 1.00197 0.26377
1010.18 1.1733e-08 1.00221 0.262363
1009.98 1.15345e-08 1.00218 0.25935
1000 0 1.00143 0.265416
1000 0 1.00143 0.265856
1000 0 1.00143 0.265403
1009.56 1.04917e-08 1.00212 0.264163
1000 0 1.00143 0.265545
1000 0 1.00143 0.265325
1009.48 1.07766e-08 1.00211 0.264356
1000 0 1.00157 0.265552
1009.55 1.05995e-08 1.00211 0.264278
1009.66 1.04805e-08 1.00205 0.264296
1010.18 1.17204e-08 1.0022 0.262493
1000 0 1.00143 0.266008
1009.86 1.04869e-08 1.00214 0.264772
1009.59 1.08137e-08 1.00211 0.264508
1009.57 1.06679e-08 1.00211 0.264397
1010.14 1.17113e-08 1.00219 0.262094
1009.67 1.04399e-08 1.00198 0.264376
1010.17 1.17211e-08 1.0022 0.262317
1010.21 1.17376e-08 1.00221 0.262564
1010.02 1.15886e-08 1.00219 0.260668
1000 0 1.00143 0.266299
1000 0 1.00143 0.266247
1000 0 1.00143 0.265739
1000 0 1.00143 0.265844
1000 0 1.00143 0.265861
1000 0 1.00157 0.266089
1009.26 1.08395e-08 1.00203 0.264857
1000 0 1.00157 0.26589
1009.4 1.087e-08 1.00203 0.264768
1000 0 1.00143 0.265879
1009.46 1.07957e-08 1.0021 0.264993
1009.52 1.08356e-08 1.00196 0.264718
1010.11 1.16968e-08 1.00219 0.262827
1009.57 1.08438e-08 1.00196 0.26453
1010.12 1.17038e-08 1.00219 0.262668
1000 0 1.00171 0.265713
1000 0 1.00171 0.266285
1000 0 1.00172 0.26483
1000 0 1.00171 0.265737
1009.54 1.08014e-08 1.00196 0.264557
1009.57 1.07373e-08 1.00196 0.264388
1009.61 1.06479e-08 1.00197 0.264285
1010.16 1.17229e-08 1.0022 0.262153
1000 0 1.00143 0.265854
1000 0 1.00171 0.265985
1009.26 1.08179e-08 1.00202 0.264916
1009.35 1.08358e-08 1.00195 0.264856
1000 0 1.00157 0.265346
1009.69 1.06396e-08 1.00197 0.264059
1009.42 1.07967e-08 1.00196 0.26454
1010.15 1.1702e-08 1.00219 0.262559
1010.18 1.17279e-08 1.00221 0.262202
1010.16 1.17123e-08 1.0022 0.262254
1009.98 1.15349e-08 1.00218 0.259326
1009.44 1.07861e-08 1.0021 0.265068
1009.49 1.08098e-08 1.00195 0.265061
1010.11 1.16968e-08 1.00219 0.262923
1010.12 1.17022e-08 1.00219 0.262739
1010.13 1.17099e-08 1.00219 0.262352
1009.95 1.14918e-08 1.00217 0.260247
1000 0 1.00143 0.265916
1009.97 1.15168e-08 1.00218 0.259388
1009.7 1.05786e-08 1.00213 0.264001
1010.2 1.17475e-08 1.0022 0.262227
1010 1.15556e-08 1.00218 0.259447
1009.95 1.14831e-08 1.00217 0.256524
1009.83 1.0553e-08 1.00213 0.26465
1010.25 1.17877e-08 1.00221 0.264148
1000 0 1.00143 0.26554
1000 0 1.00143 0.26537
1009.58 1.07541e-08 1.00211 0.264404
1000 0 1.00143 0.266045
1009.6 1.04514e-08 1.00212 0.264176
1009.55 1.05714e-08 1.00211 0.264262
1010.19 1.17246e-08 1.0022 0.262534
1000 0 1.00143 0.266112
1009.87 1.05002e-08 1.00214 0.264918
1009.45 1.0835e-08 1.00204 0.264476
1009.51 1.0693e-08 1.00204 0.264334
1010.16 1.17078e-08 1.00219 0.262107
1009.71 1.04642e-08 1.00213 0.264348
1010.17 1.17168e-08 1.0022 0.262373
1010.2 1.17339e-08 1.00221 0.262619
1010.02 1.15896e-08 1.00219 0.260504
1009.76 1.0458e-08 1.00213 0.264498
1009.95 1.05152e-08 1.00214 0.265028
1010.25 1.1778e-08 1.00221 0.264503
1010.13 1.17079e-08 1.00219 0.262224
1010.16 1.17159e-08 1.0022 0.262124
1009.96 1.15107e-08 1.00217 0.259011
1010.23 1.17554e-08 1.00221 0.26325
1010 1.15638e-08 1.00218 0.259523
1010.04 1.16129e-08 1.00219 0.26099
1009.98 1.15294e-08 1.00218 0.25863
1000 0 1.00143 0.266328
1000 0 1.00143 0.26629
1000 0 1.00143 0.266243
1009.91 1.05661e-08 1.00214 0.264904
1000 0 1.00143 0.266074
1000 0 1.00143 0.265665
1000 0 1.00143 0.265798
1009.55 1.08473e-08 1.0021 0.264911
1009.49 1.0817e-08 1.0021 0.265028
1000 0 1.00143 0.265879
1000 0 1.00143 0.265874
1009.43 1.08168e-08 1.0021 0.265008
1009.51 1.08572e-08 1.00203 0.264845
1010.14 1.16931e-08 1.00219 0.262827
1009.41 1.08657e-08 1.00211 0.264733
1010.14 1.17001e-08 1.00219 0.262655
1009.45 1.078e-08 1.00209 0.265024
1010.11 1.16927e-08 1.00219 0.262843
1010.12 1.1701e-08 1.00219 0.262797
1009.95 1.14836e-08 1.00217 0.261175
1010.12 1.17053e-08 1.00219 0.262454
1009.95 1.14856e-08 1.00217 0.260392
1000 0 1.00143 0.265858
1000 0 1.00171 0.266364
1009.48 1.07949e-08 1.00209 0.26495
1009.52 1.08131e-08 1.00196 0.264697
1000 0 1.00143 0.265658
1009.65 1.06091e-08 1.00198 0.264353
1009.55 1.07759e-08 1.00196 0.264441
1010.13 1.17054e-08 1.00219 0.262484
1010.15 1.17158e-08 1.0022 0.262272
1010.18 1.1733e-08 1.00221 0.262047
1009.98 1.15345e-08 1.00218 0.2593
1009.4 1.08073e-08 1.0021 0.26504
1009.48 1.08315e-08 1.00195 0.264928
1010.14 1.16931e-08 1.00219 0.262872
1010.14 1.16986e-08 1.00219 0.262755
1000 0 1.00143 0.265865
1009.75 1.06063e-08 1.00205 0.264158
1010.19 1.17429e-08 1.00221 0.262243
1010.15 1.17066e-08 1.00219 0.262309
1009.95 1.1492e-08 1.00217 0.260071
1010 1.15562e-08 1.00218 0.259367
1009.97 1.1517e-08 1.00218 0.25944
1009.95 1.14832e-08 1.00217 0.256572
1009.85 1.05746e-08 1.00213 0.264517
1010.24 1.1784e-08 1.00221 0.264156
1010.11 1.16936e-08 1.00219 0.262887
1010.12 1.16994e-08 1.00219 0.262889
1009.95 1.14849e-08 1.00217 0.261303
1009.95 1.14855e-08 1.00217 0.260284
1009.96 1.15026e-08 1.00218 0.259594
1009.92 1.14515e-08 1.00217 0.257899
1009.76 1.05557e-08 1.00213 0.26433
1009.93 1.14692e-08 1.00217 0.256602
1010.22 1.17661e-08 1.00221 0.262742
1010.02 1.1581e-08 1.00219 0.259944
1009.96 1.15003e-08 1.00218 0.256634
1009.94 1.14789e-08 1.00217 0.254843
1010.24 1.1781e-08 1.00221 0.263654
1010.25 1.17937e-08 1.00221 0.264814
1010.06 1.16578e-08 1.0022 0.263146
1009.59 1.08137e-08 1.00211 0.264574
1000 0 1.00143 0.266208
1009.86 1.04869e-08 1.00214 0.265082
1009.57 1.06679e-08 1.00211 0.264297
1010.14 1.17113e-08 1.00219 0.262126
1009.67 1.04399e-08 1.00212 0.2645
1010.21 1.17376e-08 1.00221 0.262667
1010.17 1.17211e-08 1.0022 0.262424
1010.02 1.15886e-08 1.00219 0.26035
1009.78 1.04768e-08 1.00213 0.264662
1009.95 1.05267e-08 1.00214 0.265106
1010.25 1.1775e-08 1.00221 0.264565
1010.15 1.17046e-08 1.00219 0.262219
1010.16 1.17121e-08 1.0022 0.262157
1009.96 1.15112e-08 1.00217 0.25903
1010.22 1.17523e-08 1.00221 0.263274
1010 1.15644e-08 1.00218 0.259681
1010.04 1.16135e-08 1.00219 0.261019
1009.98 1.15296e-08 1.00218 0.25823
1010.04 1.05453e-08 1.00215 0.265109
1010.24 1.17661e-08 1.00221 0.264017
1010.25 1.17829e-08 1.00221 0.265195
1010.07 1.16723e-08 1.0022 0.263506
1009.95 1.14952e-08 1.00217 0.25925
1009.98 1.15367e-08 1.00218 0.25908
1009.93 1.14411e-08 1.00217 0.255829
1010.06 1.16396e-08 1.00219 0.261937
1009.96 1.14971e-08 1.00218 0.255899
1010 1.15506e-08 1.00219 0.259076
1009.98 1.15117e-08 1.00218 0.256794
1010.23 1.17962e-08 1.00221 0.26587
1010.19 1.06034e-08 1.00216 0.265007
1000 0 1.00143 0.266324
1000 0 1.00143 0.2663
1000 0 1.00143 0.266268
1010 1.05956e-08 1.00215 0.265041
1000 0 1.00143 0.266166
1009.93 1.05818e-08 1.00214 0.264772
1000 0 1.00143 0.265997
1009.57 1.08438e-08 1.00211 0.264757
1009.52 1.08356e-08 1.0021 0.264997
1010.12 1.17038e-08 1.00219 0.26264
1010.11 1.16968e-08 1.00219 0.262827
1009.46 1.07957e-08 1.0021 0.265035
1000 0 1.00143 0.265879
1009.17 1.08034e-08 1.00209 0.265028
1010.11 1.16893e-08 1.00219 0.262843
1010.12 1.16975e-08 1.00219 0.262783
1009.94 1.14837e-08 1.00217 0.261166
1010.15 1.17019e-08 1.00219 0.262436
1009.94 1.14859e-08 1.00217 0.260415
1010.1 1.16916e-08 1.00219 0.262864
1009.94 1.14843e-08 1.00217 0.261342
1009.95 1.14856e-08 1.00217 0.260916
1009.91 1.1432e-08 1.00217 0.259464
1009.95 1.14876e-08 1.00217 0.25978
1009.92 1.14465e-08 1.00217 0.258299
1009.44 1.07861e-08 1.0021 0.265013
1009.49 1.08098e-08 1.00195 0.264772
1010.11 1.16968e-08 1.00218 0.262823
1010.12 1.17022e-08 1.00219 0.262757
1000 0 1.00143 0.265802
1009.7 1.05786e-08 1.00198 0.264105
1010.2 1.17475e-08 1.00221 0.262247
1010.13 1.17099e-08 1.00219 0.262262
1009.95 1.14918e-08 1.00217 0.259883
1009.97 1.15168e-08 1.00218 0.259497
1010 1.15556e-08 1.00218 0.259261
1009.95 1.14831e-08 1.00217 0.256611
1009.83 1.0553e-08 1.00213 0.264397
1010.25 1.17877e-08 1.00221 0.264157
1010.11 1.16901e-08 1.00218 0.262856
1010.12 1.16961e-08 1.00219 0.262853
1009.94 1.1485e-08 1.00217 0.261256
1009.94 1.14858e-08 1.00217 0.260443
1009.79 1.05813e-08 1.00213 0.264229
1010.21 1.17615e-08 1.00221 0.262667
1010.02 1.1582e-08 1.00219 0.260004
1009.96 1.15028e-08 1.00218 0.259684
1009.92 1.14513e-08 1.00217 0.257664
1009.96 1.15005e-08 1.00218 0.256332
1009.93 1.14692e-08 1.00217 0.256614
1009.94 1.14788e-08 1.00217 0.254716
1010.23 1.17779e-08 1.00221 0.263745
1010.06 1.16576e-08 1.0022 0.263274
1010.24 1.17903e-08 1.00221 0.264719
1009.95 1.1484e-08 1.00217 0.261439
1009.95 1.14858e-08 1.00217 0.260894
1009.91 1.14427e-08 1.00217 0.259759
1009.91 1.14443e-08 1.00217 0.258113
1009.92 1.14573e-08 1.00217 0.25678
1009.91 1.14476e-08 1.00217 0.255385
1010.23 1.17757e-08 1.00221 0.263276
1009.93 1.14638e-08 1.00217 0.254289
1010.04 1.16106e-08 1.00219 0.261242
1009.98 1.15225e-08 1.00218 0.256185
1009.95 1.14886e-08 1.00218 0.254196
1009.93 1.14799e-08 1.00217 0.252985
1010.24 1.17987e-08 1.00221 0.265295
1010.06 1.16485e-08 1.0022 0.26291
1010.07 1.16639e-08 1.0022 0.263666
1010.05 1.16075e-08 1.0022 0.262498
1010.13 1.17079e-08 1.00219 0.262218
1009.95 1.05152e-08 1.00214 0.265166
1009.76 1.0458e-08 1.00213 0.264852
1010.25 1.1778e-08 1.00221 0.264617
1010.16 1.17159e-08 1.0022 0.262194
1009.96 1.15107e-08 1.00217 0.259047
1010.23 1.17554e-08 1.00221 0.263295
1010.04 1.16129e-08 1.00219 0.261029
1010 1.15638e-08 1.00218 0.259842
1009.98 1.15294e-08 1.00218 0.257852
1010.03 1.05545e-08 1.00215 0.265134
1010.23 1.17633e-08 1.00221 0.263986
1010.25 1.17807e-08 1.00221 0.265307
1010.07 1.16728e-08 1.0022 0.263497
1009.95 1.14956e-08 1.00217 0.259265
1009.98 1.15373e-08 1.00218 0.259126
1009.93 1.1441e-08 1.00217 0.255827
1010.06 1.16409e-08 1.00219 0.26202
1009.96 1.14975e-08 1.00218 0.256199
1010 1.15504e-08 1.00219 0.258899
1009.98 1.15122e-08 1.00218 0.256872
1010.11 1.05717e-08 1.00215 0.265083
1010.25 1.17852e-08 1.00221 0.26575
1010.07 1.166e-08 1.0022 0.263031
1010.07 1.16771e-08 1.0022 0.264185
1010.07 1.16219e-08 1.0022 0.262449
1009.92 1.14178e-08 1.00217 0.256225
1009.94 1.14678e-08 1.00217 0.255366
1009.94 1.15603e-08 1.00217 0.253192
1010.03 1.15804e-08 1.00219 0.259628
1009.96 1.14971e-08 1.00218 0.252986
1009.99 1.1505e-08 1.00218 0.256562
1010.24 1.17909e-08 1.00221 0.265923
1010.06 1.1667e-08 1.0022 0.265979
1010.22 1.18023e-08 1.00221 0.26584
1010.23 1.17948e-08 1.00221 0.265875
1010.25 1.06361e-08 1.00201 0.265302
1010.18 1.06124e-08 1.00208 0.265265
1000 0 1.00174 0.26562
1000 0 1.00143 0.266309
1000 0 1.00143 0.266284
1010.1 1.06386e-08 1.00215 0.265137
1000 0 1.00143 0.266243
1010.01 1.06097e-08 1.00215 0.264958
1000 0 1.00143 0.266125
1009.91 1.05661e-08 1.00214 0.264662
1000 0 1.00143 0.265942
1010.12 1.17053e-08 1.00219 0.26242
1010.12 1.1701e-08 1.00219 0.262773
1009.95 1.14856e-08 1.00217 0.260423
1009.95 1.14836e-08 1.00217 0.261158
1010.11 1.16927e-08 1.00219 0.262841
1009.45 1.078e-08 1.00209 0.265008
1010.14 1.16878e-08 1.00219 0.262863
1009.94 1.14843e-08 1.00217 0.261334
1009.95 1.14858e-08 1.00217 0.260879
1009.91 1.14313e-08 1.00217 0.259351
1009.94 1.14879e-08 1.00217 0.259777
1009.92 1.14462e-08 1.00217 0.258326
1009.95 1.14862e-08 1.00217 0.261398
1009.91 1.14071e-08 1.00217 0.259907
1009.91 1.14348e-08 1.00217 0.258881
1009.92 1.14846e-08 1.00217 0.258304
1009.92 1.14385e-08 1.00217 0.257159
1009.91 1.14409e-08 1.00217 0.255618
1010.11 1.16936e-08 1.00218 0.262831
1010.12 1.16994e-08 1.00219 0.262829
1009.95 1.14849e-08 1.00217 0.261194
1009.95 1.14855e-08 1.00217 0.260608
1009.76 1.05557e-08 1.00213 0.264129
1010.22 1.17661e-08 1.00221 0.262595
1010.02 1.1581e-08 1.00219 0.260091
1009.96 1.15026e-08 1.00218 0.259782
1009.92 1.14515e-08 1.00217 0.257429
1009.93 1.14692e-08 1.00217 0.256626
1009.96 1.15003e-08 1.00218 0.256067
1009.94 1.14789e-08 1.00217 0.254606
1010.24 1.1781e-08 1.00221 0.263829
1010.06 1.16578e-08 1.0022 0.263351
1010.25 1.17937e-08 1.00221 0.264648
1009.95 1.1484e-08 1.00217 0.261404
1009.95 1.1486e-08 1.00217 0.260836
1009.91 1.14421e-08 1.00217 0.259637
1009.91 1.14439e-08 1.00217 0.258227
1010.22 1.17723e-08 1.00221 0.263289
1010.04 1.16103e-08 1.00219 0.26117
1009.98 1.15235e-08 1.00218 0.256447
1009.92 1.14571e-08 1.00217 0.256965
1009.91 1.14471e-08 1.00217 0.255239
1009.95 1.14883e-08 1.00218 0.253963
1009.93 1.14636e-08 1.00217 0.254317
1009.93 1.14797e-08 1.00217 0.253064
1010.06 1.16502e-08 1.0022 0.262854
1010.05 1.16079e-08 1.0022 0.262436
1010.24 1.17961e-08 1.00221 0.265258
1010.07 1.16641e-08 1.0022 0.263831
1009.91 1.14192e-08 1.00217 0.259973
1009.91 1.14328e-08 1.00217 0.259048
1009.91 1.14517e-08 1.00216 0.258554
1009.91 1.14505e-08 1.00216 0.255346
1009.92 1.14578e-08 1.00217 0.254723
1009.91 1.14507e-08 1.00216 0.254234
1010.05 1.16335e-08 1.00219 0.262374
1009.92 1.14798e-08 1.00217 0.252286
1010.01 1.15532e-08 1.00219 0.257975
1009.97 1.1495e-08 1.00218 0.253135
1009.95 1.1525e-08 1.00217 0.252565
1009.92 1.14339e-08 1.00217 0.252643
1010.23 1.18039e-08 1.00221 0.265619
1010.06 1.16656e-08 1.0022 0.264237
1010.04 1.15948e-08 1.00219 0.261988
1010.07 1.16222e-08 1.0022 0.26267
1010.05 1.16063e-08 1.0022 0.261754
1010.04 1.05453e-08 1.00215 0.265165
1009.95 1.14952e-08 1.00217 0.259284
1010.25 1.17829e-08 1.00221 0.265433
1010.24 1.17661e-08 1.00221 0.263942
1010.07 1.16723e-08 1.0022 0.263488
1009.98 1.15367e-08 1.00218 0.259162
1009.93 1.14411e-08 1.00217 0.255823
1010.06 1.16396e-08 1.00219 0.262119
1010 1.15506e-08 1.00219 0.258623
1009.96 1.14971e-08 1.00218 0.256491
1009.98 1.15117e-08 1.00218 0.256915
1010.11 1.05803e-08 1.00215 0.26508
1010.24 1.17836e-08 1.00221 0.265827
1010.07 1.16615e-08 1.0022 0.263039
1010.07 1.16775e-08 1.0022 0.264266
1010.07 1.16221e-08 1.0022 0.262428
1009.92 1.14181e-08 1.00217 0.256175
1009.94 1.14673e-08 1.00217 0.255365
1009.94 1.15608e-08 1.00217 0.253123
1010.03 1.1581e-08 1.00219 0.259767
1009.96 1.14962e-08 1.00218 0.253286
1009.99 1.15055e-08 1.00218 0.256556
1010.24 1.17875e-08 1.00221 0.265927
1010.07 1.16753e-08 1.0022 0.26508
1010.05 1.16051e-08 1.0022 0.26123
1010.08 1.16371e-08 1.0022 0.263118
1010.06 1.16125e-08 1.0022 0.261919
1009.94 1.16445e-08 1.00217 0.254506
1009.94 1.14578e-08 1.00217 0.252024
1009.87 1.12255e-08 1.00217 0.250656
1010.01 1.15255e-08 1.00219 0.256798
1009.97 1.15987e-08 1.00218 0.252978
1010.23 1.17896e-08 1.00221 0.265941
1010.06 1.16684e-08 1.0022 0.265962
1010.06 1.16675e-08 1.0022 0.265961
1010.08 1.1634e-08 1.0022 0.26523
1010.05 1.16664e-08 1.0022 0.265922
1010.22 1.18094e-08 1.00221 0.265843
1010.22 1.18008e-08 1.00221 0.265837
1010.32 1.06787e-08 1.00201 0.265285
1010.23 1.17962e-08 1.00221 0.265881
1010.25 1.06439e-08 1.00201 0.26544
1000 0 1.00174 0.265596
1010.19 1.06034e-08 1.002 0.265424
1000 0 1.00158 0.265762
1000 0 1.00143 0.266296
1010.19 1.0681e-08 1.00216 0.265211
1010.1 1.06479e-08 1.00215 0.265064
1000 0 1.00143 0.266269
1000 0 1.00143 0.266216
1010 1.05956e-08 1.00215 0.264862
1000 0 1.00143 0.266052
1009.95 1.14876e-08 1.00217 0.25977
1009.95 1.14856e-08 1.00217 0.260858
1009.92 1.14465e-08 1.00217 0.25836
1009.91 1.1432e-08 1.00217 0.259235
1009.94 1.14843e-08 1.00217 0.261327
1010.1 1.16916e-08 1.00219 0.262857
1009.94 1.14865e-08 1.00217 0.261402
1009.91 1.14069e-08 1.00217 0.259948
1009.91 1.14344e-08 1.00217 0.258883
1009.92 1.14849e-08 1.00217 0.258165
1009.92 1.14383e-08 1.00217 0.257128
1009.91 1.14408e-08 1.00217 0.255704
1009.9 1.13883e-08 1.00217 0.260171
1009.93 1.15564e-08 1.00217 0.25902
1009.92 1.15048e-08 1.00216 0.256823
1009.92 1.16194e-08 1.00217 0.257329
1009.92 1.15014e-08 1.00217 0.255655
1009.94 1.16086e-08 1.00216 0.254208
1009.95 1.1484e-08 1.00217 0.261371
1009.95 1.14858e-08 1.00217 0.260756
1009.91 1.14427e-08 1.00217 0.259523
1009.91 1.14443e-08 1.00217 0.258347
1010.23 1.17757e-08 1.00221 0.263296
1010.04 1.16106e-08 1.00219 0.261096
1009.98 1.15225e-08 1.00218 0.256696
1009.92 1.14573e-08 1.00217 0.257148
1009.91 1.14476e-08 1.00217 0.255104
1009.93 1.14638e-08 1.00217 0.254347
1009.95 1.14886e-08 1.00218 0.253674
1009.93 1.14799e-08 1.00217 0.253121
1010.06 1.16485e-08 1.0022 0.262823
1010.05 1.16075e-08 1.0022 0.26241
1010.24 1.17987e-08 1.00221 0.265207
1010.07 1.16639e-08 1.0022 0.263924
1009.91 1.1419e-08 1.00217 0.259978
1009.91 1.14327e-08 1.00217 0.259037
1009.91 1.14521e-08 1.00216 0.258516
1009.91 1.14509e-08 1.00216 0.25557
1010.05 1.16351e-08 1.00219 0.262298
1010.01 1.15529e-08 1.00219 0.25827
1009.97 1.14951e-08 1.00218 0.252973
1009.92 1.14579e-08 1.00217 0.254885
1009.91 1.14513e-08 1.00216 0.254162
1009.95 1.1525e-08 1.00217 0.252412
1009.92 1.14799e-08 1.00217 0.252295
1009.92 1.14337e-08 1.00217 0.252678
1010.04 1.15952e-08 1.00219 0.261937
1010.05 1.16047e-08 1.0022 0.261666
1010.07 1.16225e-08 1.0022 0.262707
1010.23 1.18016e-08 1.00221 0.265556
1010.06 1.16658e-08 1.0022 0.264262
1009.93 1.15679e-08 1.00217 0.25883
1009.92 1.14761e-08 1.00216 0.257342
1009.9 1.14289e-08 1.00216 0.253516
1009.91 1.14535e-08 1.00216 0.253212
1010.03 1.15801e-08 1.00219 0.260782
1009.9 1.14005e-08 1.00217 0.250078
1010 1.15159e-08 1.00219 0.254888
1009.97 1.15964e-08 1.00218 0.250271
1009.93 1.14559e-08 1.00217 0.251334
1010.23 1.18108e-08 1.00221 0.265764
1010.06 1.16683e-08 1.0022 0.264689
1010.07 1.1621e-08 1.0022 0.263422
1010.04 1.15862e-08 1.00219 0.260927
1010.07 1.16196e-08 1.0022 0.26179
1010.05 1.16105e-08 1.00219 0.260447
1010.11 1.05717e-08 1.00215 0.265046
1010.25 1.17852e-08 1.00221 0.265903
1009.92 1.14178e-08 1.00217 0.256121
1010.07 1.16771e-08 1.0022 0.264345
1010.07 1.166e-08 1.0022 0.263044
1010.07 1.16219e-08 1.0022 0.262408
1009.94 1.14678e-08 1.00217 0.255369
1009.94 1.15603e-08 1.00217 0.253064
1010.03 1.15804e-08 1.00219 0.259916
1009.99 1.1505e-08 1.00218 0.256579
1009.96 1.14971e-08 1.00218 0.253573
1010.24 1.17857e-08 1.00221 0.265967
1010.07 1.16756e-08 1.0022 0.265138
1010.05 1.16058e-08 1.0022 0.261344
1010.08 1.1637e-08 1.0022 0.263193
1010.07 1.16132e-08 1.0022 0.261755
1009.94 1.16419e-08 1.00217 0.254448
1009.94 1.14615e-08 1.00217 0.252068
1009.87 1.12222e-08 1.00217 0.250594
1010.02 1.15266e-08 1.00219 0.256675
1009.98 1.16026e-08 1.00218 0.252878
1010.06 1.16714e-08 1.0022 0.265687