# vtk DataFile Version 2.0
Wound Healing Simulation
ASCII
DATASET UNSTRUCTURED_GRID
POINTS 3012 float
69.9759 18.75 4
67.2507 60.3285 4
69.976 18.75 2
73.0099 25.446 4
71.1327 20.9142 4
68.6801 16.6661 4
67.8242 19.9263 3.97947
67.2507 60.3286 2
71.1327 54.0858 4
68.6801 58.3339 4
65.6939 62.2254 4
65.3108 59.0005 3.97847
74.6784 42.3946 4
73.7221 47.2057 4
69.9759 18.75 0
73.0099 25.446 2
68.6801 16.6661 2
71.1327 20.9142 2
67.8248 19.9298 2
74.6792 32.6053 4
73.7222 27.7943 4
72.1454 23.1494 4
70.6131 26.2211 3.97909
68.8845 21.958 3.97991
67.2507 14.6715 4
66.6357 17.9725 3.97861
65.793 21.0276 3.96867
67.2507 60.3285 0
71.1327 54.0858 2
68.6801 58.3339 2
65.694 62.2255 2
65.3122 58.9961 2
72.1454 51.8506 4
69.9759 56.25 4
68.8351 53.113 3.9791
64.0165 64.0165 4
66.6094 57.1333 3.97905
63.8839 60.7647 3.9788
63.4964 57.7671 3.96928
60.3285 67.2507 4
74.6792 42.3947 2
73.7222 47.2057 2
74.9194 39.9526 4
74.2788 44.8158 4
72.1675 42.0856 3.97908
73.0099 49.554 4
71.2483 46.598 3.97848
73.0099 25.446 0
71.1327 20.9142 0
68.6801 16.6661 0
67.8242 19.9263 0.0205304
74.6792 32.6053 2
73.7222 27.7943 2
67.2508 14.6715 2
72.1455 23.1494 2
70.613 26.2216 2
66.6366 17.977 2
68.8847 21.9603 2
65.7923 21.0286 2
74.9197 35.0474 4
74.2794 30.1841 4
72.1841 32.9436 3.97937
71.2773 28.4316 3.97876
69.8144 24.0596 3.97968
68.3434 26.9527 3.96803
66.7587 22.9349 3.96832
65.694 12.7746 4
65.3219 16.1048 3.97786
64.7094 19.1986 3.96902
63.8645 22.045 3.96564
71.1327 54.0858 0
65.6939 62.2254 0
68.6801 58.3339 0
65.3108 59.0005 0.021528
72.1455 51.8506 2
69.9759 56.25 2
68.8353 53.1109 2
64.0165 64.0165 2
66.6103 57.1291 2
63.8858 60.7607 2
63.4956 57.7668 2
62.2254 65.694 4
58.8935 65.4136 3.98852
69.7677 50.9889 3.97883
67.7824 55.1671 3.9792
66.6455 52.2077 3.96775
62.3342 62.4263 3.98165
64.6568 56.0287 3.96906
62.1984 59.3964 3.96874
61.8143 56.6722 3.9653
58.3339 68.6801 4
60.3285 67.2508 2
73.7221 47.2057 0
74.6784 42.3946 0
74.9197 39.9526 2
74.2794 44.8159 2
72.1669 42.0855 2
73.0099 49.554 2
71.2481 46.5977 2
75 37.5 4
72.4048 39.8023 3.97979
71.7817 44.3529 3.97905
69.8013 41.7898 3.96858
70.574 48.8135 3.97848
68.9088 46.0143 3.96799
74.6792 32.6053 0
73.7222 27.7943 0
67.2507 14.6715 0
72.1454 23.1494 0
70.6131 26.2211 0.0209129
68.8845 21.958 0.0200869
66.6357 17.9725 0.0213914
65.793 21.0276 0.0313342
74.9197 35.0474 2
74.2794 30.1841 2
72.1835 32.944 2
71.277 28.4321 2
65.694 12.7745 2
65.3235 16.1097 2
69.8144 24.0608 2
68.3432 26.9534 2
64.7086 19.1995 2
66.7582 22.9358 2
63.8645 22.0455 2
72.4126 35.2244 3.97984
71.8031 30.6765 3.97933
69.8373 33.2692 3.96874
68.9629 29.0393 3.96814
67.6077 24.9134 3.96812
66.1617 27.6428 3.96699
64.0165 10.9835 4
64.7284 23.8394 3.96612
63.888 14.3293 3.97887
63.5084 17.4536 3.96957
62.8888 20.3312 3.9649
62.0218 22.9689 3.96711
60.6824 11.0997 3.98304
57.6103 11.4547 3.9746
72.1454 51.8506 0
69.9759 56.25 0
68.8351 53.113 0.020899
64.0165 64.0165 0
63.8839 60.7647 0.021201
66.6094 57.1333 0.0209492
63.4964 57.7671 0.0307174
62.2255 65.694 2
58.8951 65.4125 2
69.7676 50.9878 2
67.7829 55.1638 2
66.6449 52.2069 2
62.3364 62.4228 2
64.6558 56.0281 2
62.1975 59.3971 2
61.8137 56.672 2
60.667 63.9756 3.98443
57.0246 66.7346 3.98996
57.556 63.6868 3.97719
67.5036 50.1755 3.96752
65.6979 54.1714 3.96824
64.5045 51.3754 3.96552
60.7694 60.9285 3.97156
62.8078 55.06 3.96488
60.6485 58.1456 3.96475
60.3083 55.7684 3.96427
56.25 69.9759 4
58.3339 68.6801 2
60.3285 67.2507 0
58.9201 9.65738 3.98593
62.2254 9.30607 4
73.0099 49.554 0
74.2788 44.8158 0
71.2483 46.598 0.0215238
72.1675 42.0856 0.0209161
74.9194 39.9526 0
75 37.5 2
72.4047 39.8024 2
71.7816 44.3525 2
69.8007 41.7895 2
70.5738 48.8131 2
68.9087 46.0137 2
72.4882 37.5122 3.97943
70.0387 39.6577 3.96876
69.4273 43.9073 3.96843
67.5662 41.4945 3.96886
68.2622 48.1062 3.96763
66.6686 45.4326 3.9678
74.9197 35.0474 0
74.2794 30.1841 0
72.1841 32.9436 0.0206336
71.2773 28.4316 0.021244
65.694 12.7746 0
65.3219 16.1048 0.0221402
69.8144 24.0596 0.0203172
68.3434 26.9527 0.0319676
66.7587 22.9349 0.0316807
64.7094 19.1986 0.0309752
63.8645 22.045 0.0343584
72.4125 35.2245 2
71.8031 30.6771 2
69.8367 33.2697 2
68.9628 29.0399 2
64.0165 10.9835 2
63.8902 14.3338 2
63.5075 17.4543 2
67.6073 24.9142 2
66.1619 27.6433 2
62.8892 20.3316 2
64.7281 23.8399 2
62.0211 22.9693 2
60.6852 11.1033 2
57.6122 11.4541 2
70.0554 35.3927 3.96885
69.4642 31.1505 3.96843
67.6279 33.5949 3.96848
66.7387 29.63 3.96735
65.4915 25.7083 3.96652
64.0443 28.2774 3.97082
62.3399 12.6572 3.98107
62.7742 24.6621 3.96851
62.1942 15.7958 3.96979
61.8023 18.6975 3.96467
61.1559 21.3687 3.96526
60.2997 23.7691 3.96979
59.2432 12.793 3.97279
55.8726 10.2403 3.9773
56.4011 13.1398 3.97192
69.7677 50.9889 0.0211677
62.2254 65.694 0
58.8935 65.4136 0.0114844
67.7824 55.1671 0.0208049
66.6455 52.2077 0.0322524
62.3342 62.4263 0.0183498
62.1984 59.3964 0.0312626
64.6568 56.0287 0.0309435
61.8143 56.6722 0.0347041
60.6691 63.9737 2
57.0258 66.7339 2
57.5564 63.6877 2
67.5032 50.1747 2
65.6971 54.1706 2
64.5045 51.375 2
60.7686 60.9297 2
62.808 55.0599 2
60.6482 58.1459 2
60.3087 55.7683 2
55.0706 67.9315 3.99131
59.216 62.3564 3.97278
55.8033 64.9058 3.98114
56.3223 62.0722 3.97396
65.2908 49.3982 3.96614
63.683 53.2835 3.9651
62.3474 50.6262 3.96741
59.3251 59.541 3.96585
61.0354 54.2892 3.96583
59.2676 56.9909 3.96319
59.2038 55.1584 3.96603
48.101 68.5769 3.98673
50.9483 69.9312 3.99149
54.0858 71.1327 4
56.25 69.976 2
58.3339 68.6801 0
57.0575 8.33689 3.98707
60.3285 7.74928 4
58.9229 9.65951 2
62.2255 9.30602 2
70.574 48.8135 0.0215192
71.7817 44.3529 0.020949
68.9088 46.0143 0.0320075
69.8013 41.7898 0.0314162
72.4048 39.8023 0.0202064
75 37.5 0
72.4876 37.5123 2
70.0386 39.6576 2
69.4272 43.9069 2
67.566 41.4943 2
68.262 48.1055 2
66.6679 45.4322 2
70.1268 37.5221 3.96885
67.8076 39.5113 3.96903
67.1856 43.4647 3.96821
65.4477 41.2003 3.97407
66.0254 47.4089 3.9671
64.5314 44.8289 3.97153
72.4126 35.2244 0.0201626
71.8031 30.6765 0.0206725
69.8373 33.2692 0.0312608
68.9629 29.0393 0.0318612
64.0165 10.9835 0
63.888 14.3293 0.0211272
63.5084 17.4536 0.0304279
67.6077 24.9134 0.0318843
66.1617 27.6428 0.0330135
64.7284 23.8394 0.033875
62.8888 20.3312 0.0350958
62.0218 22.9689 0.0328942
60.6824 11.0997 0.0169594
57.6103 11.4547 0.025402
70.0554 35.3929 2
69.4641 31.1509 2
67.6279 33.5951 2
66.7386 29.6304 2
62.3423 12.6616 2
62.1933 15.7959 2
61.8017 18.6977 2
65.4915 25.7088 2
64.0428 28.2779 2
61.1549 21.3691 2
62.7734 24.6626 2
60.2994 23.77 2
59.2449 12.7914 2
56.4022 13.1374 2
55.8741 10.24 2
67.8473 35.5498 3.96895
67.2348 31.6281 3.96803
65.6 33.9367 3.97369
64.5595 30.2107 3.97176
63.4456 26.4379 3.96966
62.0879 28.8119 3.97518
60.7716 14.2358 3.97164
60.9047 25.3779 3.97207
60.601 17.1457 3.96576
60.1726 19.845 3.96293
59.5423 22.3027 3.96644
58.8082 24.3752 3.97263
54.0362 9.14148 3.97956
57.904 14.3556 3.97108
54.7831 12.0282 3.97375
55.3041 14.6817 3.96957
67.5036 50.1755 0.0324832
57.0246 66.7346 0.0100409
60.667 63.9756 0.0155668
57.556 63.6868 0.022807
65.6979 54.1714 0.0317639
64.5045 51.3754 0.034483
60.7694 60.9285 0.0284403
60.6485 58.1456 0.0352492
62.8078 55.06 0.0351165
60.3083 55.7684 0.0357274
55.0715 67.9313 2
59.2165 62.3582 2
55.8035 64.9065 2
56.3217 62.0747 2
65.2908 49.3978 2
63.6832 53.2832 2
62.347 50.6258 2
59.3242 59.5421 2
61.0362 54.2892 2
59.2693 56.9909 2
59.2057 55.1583 2
53.0426 68.9993 3.99136
53.9657 66.0108 3.98373
57.8745 60.8526 3.97177
54.6812 63.1995 3.97663
55.2032 60.5906 3.97191
63.0852 48.6357 3.96883
61.67 52.5513 3.96662
60.1143 49.9778 3.96945
58.0013 58.241 3.96602
59.2523 53.916 3.96732
58.0627 55.78 3.96121
50.1077 67.8553 3.9863
47.462 66.5765 3.98279
46.0548 69.1558 3.98702
48.1011 68.5775 2
48.8023 70.7225 3.99161
50.9489 69.9311 2
51.8506 72.1454 4
54.0858 71.1327 2
56.25 69.9759 0
55.1022 7.14132 3.98935
58.3339 6.31992 4
57.0597 8.33835 2
60.3286 7.74926 2
58.9201 9.65738 0.0140718
62.2254 9.30607 0
68.2622 48.1062 0.0323726
69.4273 43.9073 0.0315698
66.6686 45.4326 0.0322014
67.5662 41.4945 0.0311422
70.0387 39.6577 0.0312431
72.4882 37.5122 0.0205663
70.1263 37.5221 2
67.807 39.5111 2
67.1863 43.4644 2
65.4459 41.2 2
66.0256 47.4085 2
64.5296 44.8284 2
67.9075 37.5227 3.96902
65.6862 39.3656 3.97473
65.0632 43.0107 3.973
63.5749 40.9125 3.97723
63.8448 46.6934 3.97004
62.6156 44.1865 3.97567
70.0554 35.3927 0.0311515
69.4642 31.1505 0.0315661
67.6279 33.5949 0.0315228
66.7387 29.63 0.0326483
62.3399 12.6572 0.0189284
62.1942 15.7958 0.0302148
61.8023 18.6975 0.0353321
65.4915 25.7083 0.0334816
64.0443 28.2774 0.0291802
62.7742 24.6621 0.0314908
61.1559 21.3687 0.0347402
60.2997 23.7691 0.0302116
59.2432 12.793 0.027208
56.4011 13.1398 0.028084
55.8726 10.2403 0.0227014
67.8466 35.55 2
67.2354 31.6283 2
65.5978 33.937 2
64.5576 30.2111 2
60.7714 14.2369 2
60.6003 17.1458 2
60.1738 19.8448 2
63.4445 26.4384 2
62.0855 28.8128 2
59.5439 22.3033 2
60.9042 25.3787 2
58.8073 24.3765 2
57.9045 14.3536 2
55.3051 14.6809 2
54.0375 9.13993 2
54.7843 12.0252 2
65.7789 35.6719 3.97441
65.078 32.1689 3.97241
64.1305 34.2638 3.97736
62.4091 30.6659 3.97621
61.4932 27.1103 3.97324
60.6351 29.1849 3.97709
59.3019 15.6898 3.96688
59.1333 25.8516 3.97552
59.0985 18.3829 3.96265
58.644 20.8988 3.96326
58.1192 23.1511 3.96739
57.7753 24.7295 3.97416
52.1113 8.15711 3.98262
53.0554 11.0289 3.97484
56.6645 15.7742 3.96955
53.8031 13.7113 3.97269
54.3602 16.0386 3.9698
55.0706 67.9315 0.00868509
65.2908 49.3982 0.0338608
55.8033 64.9058 0.0188571
59.216 62.3564 0.0272229
56.3223 62.0722 0.0260445
63.683 53.2835 0.0349008
62.3474 50.6262 0.0325877
59.3251 59.541 0.0341507
59.2676 56.9909 0.0368061
61.0354 54.2892 0.0341743
59.2038 55.1584 0.0339689
53.0433 68.9993 2
53.9659 66.0115 2
57.8735 60.8544 2
54.6807 63.2003 2
55.2028 60.5925 2
63.0843 48.6352 2
61.6706 52.5512 2
60.1144 49.9771 2
58.0005 58.2419 2
59.2548 53.9159 2
58.0605 55.7788 2
52.069 66.9981 3.98585
52.952 64.2123 3.98026
56.6361 59.4665 3.96959
[...]
POINT_DATA 3012
SCALARS Jp_lamdaP float 4
LOOKUP_TABLE default
0.999814 1 1 0.999814
1 1 1 1
0.999819 1 1 0.999819
0.999766 1 1 0.999766
0.999813 1 1 0.999813
0.999805 1 1 0.999805
0.999205 1 1 0.999205
1 1 1 1
1 1 1 1
1 1 1 1
0.999886 1 1 0.999886
0.999353 1 1 0.999353
0.999735 1 1 0.999735
0.99976 1 1 0.99976
0.999819 1 1 0.999819
0.999785 1 1 0.999785
0.999809 1 1 0.999809
0.999824 1 1 0.999824
0.999208 1 1 0.999208
1 1 1 1
0.999746 1 1 0.999746
0.999794 1 1 0.999794
0.999074 1 1 0.999074
0.999176 1 1 0.999176
0.999821 1 1 0.999821
0.999233 1 1 0.999233
1.00115 1.0029 1 0.998251
1 1 1 1
0.999896 1 1 0.999896
0.999909 1 1 0.999909
1 1 1 1
0.999362 1 1 0.999362
0.999785 1 1 0.999785
0.999809 1 1 0.999809
0.999306 1 1 0.999306
1 1 1 1
0.999393 1 1 0.999393
0.999453 1 1 0.999453
0.998595 1.00032 1 0.998274
1 1 1 1
1 1 1 1
0.999878 1 1 0.999878
1 1 1 1
0.999755 1 1 0.999755
0.999002 1 1 0.999002
1 1 1 1
0.999208 1 1 0.999208
0.9998 1 1 0.9998
0.999831 1 1 0.999831
0.999811 1 1 0.999811
0.999213 1 1 0.999213
0.999862 1 1 0.999862
0.999763 1 1 0.999763
0.999832 1 1 0.999832
0.99981 1 1 0.99981
0.999074 1 1 0.999074
0.999237 1 1 0.999237
0.999178 1 1 0.999178
1.00149 1.00326 1 0.998236
1 1 1 1
0.999736 1 1 0.999736
0.999195 1 1 0.999195
0.999038 1 1 0.999038
0.999127 1 1 0.999127
1.00382 1.00588 1 0.997956
1.00227 1.0042 1 0.998086
0.999881 1 1 0.999881
0.999346 1 1 0.999346
0.999672 1.00132 1 0.998353
1.01131 1.01389 1 0.997453
1 1 1 1
1 1 1 1
1 1 1 1
0.999369 1 1 0.999369
1 1 1 1
1 1 1 1
0.999203 1 1 0.999203
0.999968 1 1 0.999968
0.999309 1 1 0.999309
0.999522 1 1 0.999522
0.99843 1.00016 1 0.998271
1 1 1 1
0.999918 1 1 0.999917
0.999138 1 1 0.999138
0.999239 1 1 0.999239
1.00383 1.006 1 0.997848
0.999697 1 1 0.999697
0.999822 1.00165 1 0.998172
0.998412 1 1 0.998412
0.999659 1.00199 1 0.99767
1 1 1 1
1 1 1 1
1 1 1 1
1 1 1 1
1 1 1 1
0.999874 1 1 0.999874
0.999093 1 1 0.999093
0.999883 1 1 0.999883
0.999152 1 1 0.999152
1 1 1 1
0.998995 1 1 0.998995
0.999185 1 1 0.999185
1.00327 1.00571 1 0.997576
0.999245 1 1 0.999245
1.00524 1.00761 1 0.997651
0.999754 1 1 0.999754
0.999779 1 1 0.999779
0.999841 1 1 0.999841
0.999823 1 1 0.999823
0.999075 1 1 0.999075
0.999183 1 1 0.999183
0.999243 1 1 0.999243
1.00183 1.00362 1 0.998221
1 1 1 1
0.999754 1 1 0.999754
0.99902 1 1 0.99902
0.999036 1 1 0.999036
0.99994 1 1 0.99994
0.999406 1 1 0.999406
0.999129 1 1 0.999129
1.0038 1.0059 1 0.997915
1.00011 1.00178 1 0.998335
1.00251 1.0044 1 0.998115
1.01128 1.01386 1 0.997458
0.999018 1 1 0.999018
0.999019 1 1 0.999019
1.0029 1.00516 1 0.99776
1.00385 1.00602 1 0.99784
1.00363 1.00567 1 0.99797
1.01883 1.02162 1 0.997278
1 1 1 1
1.01375 1.0164 1 0.997392
0.999575 1 1 0.999575
0.998586 1.00021 1 0.998372
1.00862 1.01113 1 0.997514
1.02168 1.02452 1 0.997229
0.999817 1 1.00002 0.999794
1.0009 1 1.00191 0.998992
1 1 1 1
1 1 1 1
0.999209 1 1 0.999209
1 1 1 1
0.999511 1 1 0.999511
0.999315 1 1 0.999315
0.998298 1.00003 1 0.998267
1 1 1 1
0.999935 1 1 0.999935
0.999209 1 1 0.999209
0.999305 1 1 0.999305
1.00329 1.00545 1 0.99785
0.999697 1 1 0.999697
0.999347 1.00117 1 0.998176
0.99841 1 1 0.99841
0.999481 1.00183 1 0.997653
0.999819 1 1 0.999819
0.999975 1 1 0.999975
0.999958 1 1.00075 0.999209
1.00508 1.00735 1 0.997738
1.0019 1.0039 1 0.998012
1.01499 1.01779 1 0.997252
0.99865 1 1 0.99865
1.00483 1.00728 1 0.997568
0.999557 1.00123 1.00057 0.99776
1.00535 1.00789 1 0.99748
1 1 1 1
1 1 1 1
1 1 1 1
0.999873 1 1 0.999873
1 1 1 1
1 1 1 1
1 1 1 1
0.999093 1 1 0.999093
0.99903 1 1 0.99903
1 1 1 1
1 1 1 1
0.998996 1 1 0.998996
0.999127 1 1 0.999127
1.00362 1.00606 1 0.997576
0.99912 1 1 0.99912
1.00533 1.0077 1 0.997651
0.998989 1 1 0.998989
1.00243 1.00491 1 0.99753
1.00437 1.00676 1 0.997623
1.022 1.02497 1 0.997102
1.00545 1.00778 1 0.99768
1.02301 1.02593 1 0.997156
1 1 1 1
0.999771 1 1 0.999771
0.99883 1 1 0.99883
0.999035 1 1 0.999035
1 1 1 1
0.999468 1 1 0.999468
0.999132 1 1 0.999132
1.00377 1.00591 1 0.997873
1.00276 1.00462 1 0.998145
1.00051 1.0022 1 0.998316
1.01123 1.01381 1 0.997463
0.999015 1 1 0.999015
0.999016 1 1 0.999016
1.00275 1.00511 1 0.997658
1.00387 1.00602 1 0.997869
1 1 1 1
0.999582 1 1 0.999582
0.998937 1.00051 1 0.998431
1.00357 1.00561 1 0.997968
1.0187 1.02151 1 0.997243
1.00821 1.01073 1 0.997503
1.01395 1.01657 1 0.997425
1.02125 1.02408 1 0.997236
1.00001 1 1.00023 0.999784
1.00088 1 1.00189 0.998994
1.002 1.00446 1 0.997552
1.00344 1.00564 1 0.997805
1.02014 1.02301 1 0.997196
1.01914 1.02203 1 0.997177
1.01627 1.01895 1 0.997369
1.02993 1.03283 1 0.997198
0.999827 1 1.00013 0.999694
1.0235 1.02633 1 0.997238
0.998648 1 1.00011 0.998543
1.00282 1.0052 1 0.997633
1.01936 1.02217 1 0.99725
1.02389 1.02668 1 0.997283
1.00073 1 1.00191 0.998822
0.999588 1 1.00038 0.999208
1.00156 1 1.00316 0.998408
0.99916 1 1 0.99916
1 1 1 1
0.999953 1 1 0.999953
0.999268 1 1 0.999268
1.00275 1.0049 1 0.997852
0.999705 1 1 0.999705
0.99845 1 1.00004 0.998409
0.998833 1.00065 1 0.998179
0.99928 1.00165 1 0.997636
0.999841 1 1 0.99984
0.999982 1 1 0.999982
1.00014 1 1.00093 0.999211
1.00476 1.00704 1 0.997738
1.00123 1.00322 1 0.998016
1.01502 1.01782 1 0.997249
0.998723 1 1.00007 0.998653
1.00481 1.00725 1 0.997578
0.999253 1.00103 1.00047 0.997755
1.00578 1.00834 1 0.997466
0.999996 1 1 0.999996
0.999349 1 1.00044 0.998915
1.00003 1 1.00054 0.999492
1.00044 1 1.00182 0.998619
1.01884 1.02173 1 0.997177
1.01036 1.01298 1 0.997413
1.02384 1.02683 1 0.997086
0.998898 1.00037 1.00049 0.998038
1.01221 1.01485 1 0.997395
1.00674 1.00774 1.00158 0.997431
1.01575 1.01846 1 0.997335
0.999818 1 1 0.999818
1 1 1 1
1 1 1 1
1 1 1 1
1 1 1 1
0.999932 1 1 0.999932
1 1 1 1
0.999911 1 1.00005 0.999861
1 1 1 1
0.99912 1 1 0.99912
0.999065 1 1 0.999065
1.0055 1.00787 1 0.99765
1.00395 1.00639 1 0.997576
0.998998 1 1 0.998998
1 1 1 1
0.998988 1 1 0.998988
1.00264 1.00512 1 0.99753
1.00468 1.00707 1 0.997623
1.02169 1.02466 1 0.997101
1.00544 1.00778 1 0.997678
1.02296 1.02588 1 0.997154
1.00192 1.00441 1 0.997524
1.02078 1.02379 1 0.997061
1.02299 1.02592 1 0.997137
1.03587 1.03878 1 0.99719
1.02206 1.02497 1 0.99716
1.03387 1.0368 1 0.997178
0.999012 1 1 0.999012
0.999014 1 1 0.999014
1.00261 1.00507 1 0.997556
1.00391 1.00602 1 0.997897
1 1 1 1
0.999588 1 1 0.999588
0.999289 1.0008 1 0.998489
1.00351 1.00555 1 0.997966
1.01857 1.02143 1 0.997209
1.01412 1.01671 1 0.997458
1.00784 1.01037 1 0.997492
1.02093 1.02375 1 0.997243
0.999967 1 1.00019 0.999774
1.00078 1 1.00178 0.998996
1.00196 1.00444 1 0.997527
1.0034 1.00561 1 0.997802
1.02028 1.02314 1 0.997198
1.01928 1.02213 1 0.997209
0.999741 1 1.00006 0.999684
0.998605 1.00002 1.00005 0.99854
1.00352 1.00587 1 0.997668
1.01653 1.01922 1 0.997363
1.03009 1.03297 1 0.997217
1.01871 1.02155 1 0.997218
1.02341 1.02624 1 0.997242
1.02429 1.02708 1 0.997283
1.00012 1 1.0013 0.998824
1.00153 1 1.00313 0.99841
1.00003 1 1.00083 0.999205
1.01981 1.02273 1 0.997146
1.02046 1.0233 1 0.997223
1.03447 1.03741 1 0.997167
1.03132 1.03425 1 0.997172
1.02582 1.02865 1 0.997246
1.03028 1.03295 1 0.997408
0.99894 1 1.00024 0.998701
1.02587 1.0286 1 0.997345
0.998936 1.00099 1 0.997952
1.01048 1.0133 1 0.997219
1.02123 1.02419 1 0.997109
1.02167 1.02426 1 0.997463
0.9994 1 1 0.9994
0.998717 1 1.00036 0.998361
1.00276 1 1.00425 0.998514
0.999988 1 1.00177 0.998221
1.00447 1.00675 1 0.997738
0.99999 1 1 0.99999
0.99986 1 1 0.99986
0.999952 1 1.00074 0.999213
1.00055 1.00254 1 0.998021
1.01502 1.01783 1 0.997246
0.998827 1 1.00017 0.998657
0.998806 1.00073 1.00033 0.99775
1.00486 1.00729 1 0.997587
1.00595 1.00852 1 0.997451
0.999997 1 1 0.999997
0.999505 1 1.00059 0.998915
0.99974 1 1.00024 0.9995
1.00076 1 1.00215 0.998614
1.01871 1.0216 1 0.997173
1.01006 1.01268 1 0.997413
1.02371 1.02671 1 0.997084
0.998648 1.00015 1.00045 0.998044
1.0124 1.01503 1 0.997407
1.00632 1.00718 1.00173 0.99742
1.01595 1.0186 1 0.997404
1 1 1 1
0.999671 1 1 0.999671
0.999003 1 1.00064 0.99836
1.00041 1 1.00152 0.998889
1.00001 1 1.00168 0.99833
1.02744 1.03045 1 0.99708
1.01823 1.02107 1 0.99722
1.02205 1.02499 1 0.997131
1.00306 1.00341 1.00199 0.997664
1.01456 1.01727 1 0.997339
1.01016 1.01218 1.00086 0.997147
0.999797 1 1 0.999797
0.999384 1 1 0.999384
0.999833 1 1 0.999833
0.99982 1 1 0.99982
1 1 1 1
1 1 1 1
1 1 1 1
1 1 1 1
1 1 1 1
0.999974 1 1 0.999974
1 1 1 1
0.999919 1 1 0.999919
1 1 1 1
1.00012 1 1.00027 0.999848
1 1 1 1
1.00539 1.00773 1 0.997677
1.00493 1.00732 1 0.997623
1.02271 1.02563 1 0.997152
1.02136 1.02434 1 0.997099
1.00291 1.00539 1 0.99753
0.998987 1 1 0.998987
1.00207 1.00456 1 0.997524
1.02066 1.02367 1 0.997061
1.02256 1.0255 1 0.997136
1.03571 1.03878 0.999837 0.997206
1.02158 1.02449 1 0.997157
1.03353 1.03646 1 0.997176
1.02019 1.02321 1 0.997052
1.03501 1.03829 0.999648 0.997197
1.03551 1.03843 1 0.997192
1.03663 1.04031 0.999064 0.997394
1.03023 1.03319 1 0.997134
1.03426 1.037 0.999913 0.997449
1.00195 1.00446 1 0.997501
1.00337 1.00558 1 0.997799
1.02044 1.0233 1 0.997201
1.0194 1.02222 1 0.997241
0.999728 1 1.00005 0.999673
0.998598 1.00006 1 0.998537
1.00426 1.00657 1 0.997704
1.01682 1.01951 1 0.997357
1.03029 1.03314 1 0.997235
1.02332 1.02614 1 0.997246
1.01797 1.02084 1 0.997186
1.02466 1.02746 1 0.997282
0.9997 1 1.00087 0.998827
1.00157 1 1.00317 0.998412
1.00036 1 1.00116 0.999202
1.01993 1.02288 1 0.997112
1.02062 1.02347 1 0.997221
1.03408 1.03699 1 0.997191
1.03147 1.0344 1 0.99717
0.998968 1 1.00027 0.998699
1.00012 1.00218 1 0.997945
1.00942 1.01215 1.00003 0.99727
1.02599 1.02883 1 0.997237
1.03017 1.0328 1 0.997449
1.02143 1.02442 1 0.997076
1.02577 1.0285 1 0.997348
1.02162 1.02418 1 0.997492
0.998951 1 1.00059 0.998362
1.00001 1 1.00181 0.998202
0.99945 1 1.00006 0.999395
1.00248 1 1.00394 0.998543
1.03458 1.03754 1 0.997151
1.03372 1.03663 1 0.997194
1.03396 1.03776 0.99902 0.997311
1.03192 1.03522 0.99936 0.997451
1.02751 1.03017 1 0.997422
1.02896 1.03162 0.999806 0.997617
0.998243 1.00002 1 0.998218
1.02234 1.02476 1 0.997635
1.00184 1.0043 1 0.99755
1.01306 1.01594 1.00018 0.996985
1.02253 1.02555 1 0.997055
1.02125 1.02378 1 0.997531
0.999538 1 1 0.999538
1.00023 1 1.00151 0.998723
0.998159 1 1 0.998159
1.00221 1 1.00393 0.998284
0.999116 1 1.00094 0.998176
0.999999 1 1 0.999999
1.01852 1.02141 1 0.997169
0.999508 1 1 0.999508
0.999899 1 1.00098 0.998916
1.00121 1 1.00261 0.998608
1.00978 1.0124 1 0.997413
1.02365 1.02664 1 0.997082
0.998557 1 1.00051 0.99805
1.00642 1.00709 1.00193 0.997409
1.01266 1.01528 1 0.997419
1.01638 1.01895 1 0.997472
1 1 1 1
0.999678 1 1 0.999678
0.998985 1 1.00062 0.998362
1.0006 1 1.00172 0.998889
1.00038 1 1.00208 0.998309
1.02761 1.03062 1 0.997074
1.01852 1.02136 1 0.997218
1.02194 1.02489 1 0.997121
1.00218 1.00238 1.00213 0.99767
1.01721 1.01992 1 0.997345
1.00962 1.01152 1.00096 0.997166
0.999756 1 1 0.999756
0.999341 1 1.0002 0.999136
0.998916 1.00039 1.00048 0.998045
1.00172 1 1.00318 0.998539
0.999724 1 1.00152 0.998212
1.02631 1.0292 1 0.997193
1.01764 1.02049 1 0.997209
1.02012 1.02287 1 0.99731
1.00205 1.00082 1.00379 0.997453
1.00836 1.01134 1 0.997045
0.9998 1 1 0.9998
0.999317 1 1 0.999317
0.999362 1 1 0.999362
0.999138 1 1 0.999138
0.999394 1 1 0.999394
0.999839 1 1 0.999839
0.999834 1 1 0.999834
1 1 1 1
0.999822 1 1 0.999822
1 1 1 1
1 1 1 1
1 1 1 1
1 1 1 1
1 1 1 1
0.999995 1 1 0.999995
0.999962 1 1 0.999962
1 1 1 1
1 1 1 1
0.999906 1 1 0.999906
1 1 1 1
1.02118 1.0241 1 0.997154
1.02234 1.02528 1 0.997135
1.03333 1.03626 1 0.997174
1.0356 1.03886 0.999644 0.997222
1.02043 1.02343 1 0.997062
1.00215 1.00463 1 0.997523
1.01998 1.02299 1 0.997053
1.03504 1.03827 0.99969 0.99719
1.03543 1.03834 1 0.997192
1.03612 1.0401 0.998741 0.997425
1.03081 1.03378 1 0.997128
1.03391 1.03689 0.999656 0.99747
1.03436 1.03756 0.999754 0.997164
1.03524 1.03985 0.9982 0.997362
1.03549 1.03894 0.999188 0.997481
1.03387 1.0397 0.996832 0.997553
1.03086 1.03361 1 0.997343
1.03332 1.03685 0.998928 0.997664
1.01994 1.02293 1 0.997077
1.02076 1.02361 1 0.997219
1.0336 1.03649 1 0.997214
1.03158 1.03451 1 0.997168
0.998931 1 1.00023 0.998698
1.0012 1.00327 1 0.997939
1.00842 1.01095 1.00018 0.99732
1.02617 1.02903 1 0.997228
1.02998 1.03257 1 0.997491
1.0257 1.02842 1 0.997352
1.02165 1.02468 1 0.997042
1.02133 1.02387 1 0.99752
0.999141 1 1.00078 0.998364
1.00001 1 1.00183 0.998182
0.999579 1 1.00019 0.99939
1.00198 1 1.00341 0.998573
1.03447 1.03743 1 0.997151
1.03323 1.03616 1 0.997175
1.0338 1.03752 0.999075 0.997341
1.03225 1.03527 0.999652 0.997433
0.998364 1.00015 1 0.998211
1.00185 1.00424 1.00003 0.997596
1.01335 1.01603 1.00039 0.996976
1.02708 1.02977 1 0.997385
1.02843 1.03107 0.999774 0.997673
1.02123 1.02426 1 0.997041
1.02295 1.02538 1 0.997637
1.02222 1.0247 1 0.997579
0.998178 1.00002 1 0.998156
0.998759 1.00003 1.00055 0.998182
1.00288 1 1.00461 0.998278
0.999503 1 1 0.999503
1.00022 1 1.00147 0.998752
1.03409 1.03904 0.997883 0.997349
1.03379 1.03778 0.998761 0.997392
1.02974 1.03448 0.997754 0.997659
1.02513 1.02806 0.999458 0.997688
0.998679 1.00072 1 0.99796
1.02633 1.02858 1 0.997806
1.00163 1.00405 1.00029 0.997303
1.01192 1.01469 1.00051 0.996757
1.01962 1.02266 1 0.99703
0.999603 1 1 0.999603
0.999261 1 1.00027 0.998989
1.00113 1 1.00264 0.998491
0.998137 1.00003 1 0.998109
1.00266 1 1.00459 0.998086
0.998103 1 1 0.998103
1 1 1 1
0.999686 1 1 0.999686
1.0278 1.03082 1 0.997069
1.00084 1 1.00196 0.998889
0.998806 1 1.00044 0.998364
1.00092 1 1.00264 0.998288
1.01867 1.02151 1 0.997217
1.02167 1.02463 1 0.99711
1.00115 1.00119 1.00229 0.997675
1.00847 1.01054 1.00077 0.997185
1.01972 1.02242 1 0.997352
0.999761 1 1 0.999761
0.999269 1 1.00013 0.99914
0.998665 1.0002 1.00041 0.998047
1.00233 1 1.0038 0.998535
0.999763 1 1.00156 0.998209
1.02629 1.02919 1 0.997187
1.018 1.02086 1 0.997199
1.01986 1.02259 1 0.997336
1.00192 1.00127 1.00324 0.997417
1.00715 1.01011 1.00006 0.997016
0.999287 1 1 0.999287
1.00093 1 1.0022 0.998733
1.00067 1.00078 1.002 0.997904
1.00198 1 1.0037 0.998279
0.999099 1 1.001 0.998106
1.02655 1.02899 1 0.997624
1.01569 1.01863 1 0.997117
1.01654 1.01924 1 0.997358
1.0038 1.00222 1.00433 0.997252
1.00139 1.00458 1 0.996826
0.999803 1 1 0.999803
0.999334 1 1 0.999334
0.999054 1 1 0.999054
0.99934 1 1 0.99934
0.999394 1 1 0.999394
0.999107 1 1 0.999107
0.998966 1 1 0.998966
0.99907 1 1 0.99907
0.999398 1 1 0.999398
0.999835 1 1 0.999835
0.999839 1 1 0.999839
1 1 1 1
0.999836 1 1 0.999836
1 1 1 1
1 1 1 1
1 1 1 1
1 1 1 1
1 1 1 1
1 1 1 1
0.99999 1 1 0.99999
1 1 1 1
0.999951 1 1 0.999951
1 1 1 1
1 1 1 1
1.03135 1.03432 1 0.997122
1.03513 1.03804 1 0.997191
1.03355 1.03679 0.999387 0.997491
1.03557 1.03984 0.998442 0.997456
1.03511 1.0383 0.999747 0.997184
1.01987 1.02289 1 0.997053
1.03478 1.03788 0.999869 0.997145
1.03548 1.03988 0.998408 0.997354
1.03561 1.03885 0.999415 0.997462
1.03318 1.03932 0.996524 0.997567
1.0302 1.03295 1 0.997343
1.03226 1.03605 0.998639 0.997706
1.03494 1.03926 0.998507 0.997334
1.03426 1.04091 0.99606 0.997546
1.03376 1.03997 0.996359 0.997666
1.03049 1.03405 0.998809 0.99775
1.03446 1.03741 1 0.997152
1.03277 1.03571 1 0.997155
1.03369 1.03732 0.999135 0.99737
1.03265 1.03541 0.999924 0.997416
0.998571 1.00036 1 0.998205
1.00168 1.00405 1 0.997642
1.01361 1.0161 1.00058 0.996967
1.02657 1.0293 1 0.997348
1.02792 1.03054 0.999725 0.997728
1.02377 1.02619 1 0.997639
1.02018 1.02322 1 0.997028
1.02348 1.02592 1 0.997627
0.998332 1.00018 1 0.998154
0.998347 1.00005 1.00011 0.998187
1.00429 1 1.00603 0.998271
0.999468 1 1 0.999468
1.00025 1 1.00147 0.99878
1.03461 1.03926 0.998167 0.997352
1.03384 1.0379 0.998691 0.997391
1.02964 1.03395 0.998173 0.997648
0.999375 1.00142 1 0.997953
1.00256 1.00497 1.00026 0.997348
1.01155 1.01408 1.00076 0.996746
1.02576 1.02869 0.999472 0.997676
1.01991 1.02286 1 0.997113
1.02423 1.02663 0.999886 0.997781
0.99962 1 1 0.99962
0.998574 1.00047 1 0.9981
0.998199 1 1 0.998199
1.00288 1 1.00482 0.99807
1.00122 1 1.00272 0.998505
0.999233 1 1.00027 0.99896
1.03301 1.04001 0.995821 0.997436
1.03183 1.04001 0.994546 0.997575
1.02452 1.03195 0.995045 0.997746
1.02846 1.03303 0.997687 0.997889
0.999784 1.00199 1 0.997794
1.01992 1.02253 1 0.997446
1.00284 1.00433 1.00165 0.996873
1.00657 1.00895 1.00104 0.996604
0.999746 1 1 0.999746
0.999175 1 1 0.999175
0.999382 1 1.0007 0.99868
1.00298 1 1.00481 0.998177
0.998398 1.0004 1.00001 0.997986
1.00236 1 1.00444 0.997933
0.999766 1 1 0.999766
0.999144 1 1 0.999144
1.02646 1.02936 1 0.99718
1.00255 1 1.00403 0.998531
0.998318 1 1.00027 0.998049
0.999687 1 1.00148 0.998206
1.01865 1.02152 1 0.997189
1.01985 1.02255 1 0.997362
1.00202 1.00191 1.00273 0.997381
1.00603 1.0088 1.00027 0.996987
0.99929 1 1 0.99929
1.00073 1 1.00199 0.998738
1.00032 1.00042 1.00198 0.997918
1.00209 1 1.00381 0.998285
0.998659 1 1.00048 0.998184
1.02699 1.02951 0.999888 0.997662
1.01503 1.01796 1 0.997125
1.0179 1.02052 1 0.997432
1.00321 1.00142 1.00458 0.997215
1.00196 1.00518 1.00003 0.996774
0.998972 1 1 0.998972
1.0018 1 1.00341 0.99839
1.00232 1.00079 1.00378 0.997755
0.999532 1 1.00155 0.997982
1.02882 1.03921 0.992087 0.997893
1.02091 1.02336 0.999872 0.99773
1.00883 1.01196 1 0.996904
1.00353 1.00244 1.00426 0.996847
0.999352 1 1 0.999352
0.999067 1 1 0.999067
0.998936 1 1 0.998936
0.999393 1 1 0.999393
0.999076 1 1 0.999076
0.999397 1 1 0.999397
0.998952 1 1 0.998952
0.999084 1 1 0.999084
0.998878 1 1 0.998878
0.9989 1 1 0.9989
0.999046 1 1 0.999046
0.999383 1 1 0.999383
0.999825 1 1 0.999825
0.999834 1 1 0.999834
1 1 1 1
0.999839 1 1 0.999839
1 1 1 1
1 1 1 1
1 1 1 1
1 1 1 1
1 1 1 1
1 1 1 1
1 1 1 1
1 1 1 1
0.999986 1 1 0.999986
1 1 1 1
1 1 1 1
1.02944 1.03219 1 0.997342
1.03582 1.03884 0.999649 0.997443
1.03123 1.03525 0.998361 0.997749
1.03252 1.03895 0.996218 0.997581
1.03571 1.03991 0.998607 0.997346
1.03518 1.03816 1 0.997125
1.03465 1.03919 0.998293 0.997334
1.03374 1.04029 0.996163 0.997537
1.03312 1.03939 0.99629 0.997665
1.03222 1.03562 0.99896 0.997756
1.0339 1.04054 0.99612 0.997488
1.03448 1.04451 0.992669 0.99771
1.035 1.04252 0.994981 0.9978
1.03509 1.03945 0.998447 0.997354
1.03387 1.038 0.998633 0.99739
1.02956 1.03337 0.998672 0.997637
1.00008 1.00214 1 0.997946
1.00352 1.00597 1.00018 0.997392
1.01084 1.01329 1.00085 0.996735
1.02636 1.02928 0.999492 0.997665
1.02202 1.0245 0.999817 0.997755
1.0201 1.02297 1 0.997197
0.998995 1.00091 1 0.99809
0.998295 1 1 0.998295
1.00289 1 1.00485 0.998054
0.999638 1 1 0.999638
1.00072 1 1.0022 0.99852
0.999154 1 1.00022 0.998932
1.03373 1.0403 0.996225 0.997443
1.03185 1.04015 0.994426 0.997583
1.02488 1.03165 0.995688 0.997739
0.99995 1.00217 1 0.997782
1.00233 1.00398 1.0014 0.996958
1.00611 1.00858 1.0009 0.996654
1.02849 1.03277 0.997956 0.997897
1.02009 1.02281 0.999909 0.997432
0.99979 1 1 0.99979
0.999175 1 1 0.999175
0.998269 1.00024 1 0.998026
1.0038 1.00004 1.00574 0.998027
1.00302 1 1.00482 0.998204
0.999306 1 1.00065 0.998657
1.03282 1.04261 0.992962 0.99763
1.02433 1.0376 0.989473 0.997709
1.02349 1.03243 0.993389 0.997937
1.02069 1.02579 0.997111 0.997918
1.00076 1.00238 1.00088 0.997497
1.00561 1.00744 1.0014 0.996785
1.00291 1.00361 1.00264 0.996673
0.999893 1 1 0.999893
0.999499 1 1 0.999499
0.999286 1 1 0.999286
0.998801 1 1 0.9988
1.00017 1 1.00179 0.998389
1.00436 1 1.0063 0.998072
0.998061 1 1 0.998061
1.0205 1 1.02235 0.998197
0.999292 1 1 0.999292
1.00074 1 1.002 0.998742
1.02735 1.02994 0.999779 0.9977
1.00253 1 1.00424 0.99829
1.00014 1.00005 1.00215 0.997931
0.998297 1 1.00004 0.998261
1.01405 1.01697 1 0.997133
1.01907 1.02162 1 0.997505
1.00276 1.00077 1.00482 0.997178
1.00268 1.00598 1 0.996721
0.998977 1 1.00003 0.99895
1.00189 1 1.00349 0.998404
1.00254 1.00061 1.00415 0.997782
0.999381 1 1.00137 0.998014
1.03023 1.04012 0.992565 0.997909
1.02074 1.02316 0.999949 0.997689
1.00989 1.01299 1 0.996944
1.00398 1.00341 1.00377 0.996801
0.999289 1 1.00053 0.998755
1.02766 1.04271 0.987632 0.997911
1.00113 1 1.00301 0.998123
1.00149 1.00131 1.00268 0.997504
1.02829 1.03274 0.997683 0.997997
1.01008 1.01308 1 0.997039
1.00494 1.00507 1.00323 0.996646