# vtk DataFile Version 2.0
Wound Healing Simulation
ASCII
DATASET UNSTRUCTURED_GRID
POINTS 3012 float
69.9759 18.75 4
67.2507 60.3285 4
69.976 18.75 2
73.0099 25.446 4
71.1327 20.9142 4
68.6801 16.6661 4
67.8231 19.9266 3.97666
67.2507 60.3286 2
71.1327 54.0858 4
68.6801 58.3339 4
65.6939 62.2254 4
65.3099 58.9999 3.976
74.6784 42.3946 4
73.7221 47.2057 4
69.9759 18.75 0
73.0099 25.446 2
68.6801 16.6661 2
71.1327 20.9142 2
67.8236 19.9301 2
74.6792 32.6053 4
73.7222 27.7943 4
72.1454 23.1494 4
70.6123 26.2215 3.97661
68.8834 21.9583 3.97714
67.2507 14.6715 4
66.6345 17.973 3.97556
65.7902 21.0287 3.96549
67.2507 60.3285 0
71.1327 54.0858 2
68.6801 58.3339 2
65.694 62.2255 2
65.3111 58.9952 2
72.1454 51.8506 4
69.9759 56.25 4
68.8339 53.1131 3.97633
64.0165 64.0165 4
66.6083 57.1328 3.97633
63.883 60.7638 3.97594
63.4943 57.765 3.96694
60.3285 67.2507 4
74.6792 42.3947 2
73.7222 47.2057 2
74.9194 39.9526 4
74.2788 44.8158 4
72.1668 42.0858 3.97745
73.0099 49.554 4
71.2474 46.598 3.9762
73.0099 25.446 0
71.1327 20.9142 0
68.6801 16.6661 0
67.8231 19.9266 0.0233363
74.6792 32.6053 2
73.7222 27.7943 2
67.2508 14.6715 2
72.1455 23.1494 2
70.612 26.2221 2
66.6354 17.9776 2
68.8836 21.9605 2
65.7893 21.0299 2
74.9197 35.0474 4
74.2794 30.1841 4
72.1835 32.9441 3.97765
71.2766 28.4321 3.97655
69.8134 24.0599 3.97701
68.3414 26.9541 3.96562
66.7561 22.936 3.96529
65.694 12.7746 4
65.3208 16.1054 3.97471
64.7065 19.2003 3.96589
63.823 22.0605 3.96458
71.1327 54.0858 0
65.6939 62.2254 0
68.6801 58.3339 0
65.3099 58.9999 0.0239986
72.1455 51.8506 2
69.9759 56.25 2
68.834 53.1109 2
64.0165 64.0165 2
66.6091 57.1286 2
63.8847 60.759 2
63.493 57.7646 2
62.2254 65.694 4
58.8925 65.4131 3.98536
69.7666 50.989 3.97611
67.7812 55.167 3.97654
66.6426 52.2073 3.96518
62.3331 62.4244 3.97824
64.6539 56.0274 3.96638
62.1969 59.3929 3.96716
61.792 56.661 3.96266
58.3339 68.6801 4
60.3285 67.2508 2
73.7221 47.2057 0
74.6784 42.3946 0
74.9197 39.9526 2
74.2794 44.8159 2
72.1661 42.0854 2
73.0099 49.554 2
71.2471 46.5975 2
75 37.5 4
72.4042 39.8026 3.97831
71.7809 44.353 3.97708
69.7997 41.7901 3.96738
70.573 48.8135 3.97595
68.9066 46.0142 3.9661
74.6792 32.6053 0
73.7222 27.7943 0
67.2507 14.6715 0
72.1454 23.1494 0
70.6123 26.2215 0.0233894
68.8834 21.9583 0.0228623
66.6345 17.973 0.02444
65.7902 21.0287 0.0345059
74.9197 35.0474 2
74.2794 30.1841 2
72.1828 32.9444 2
71.2762 28.4326 2
65.694 12.7745 2
65.3222 16.1106 2
69.8134 24.0611 2
68.341 26.9549 2
64.7054 19.2012 2
66.7555 22.9371 2
63.8231 22.0609 2
72.412 35.2248 3.97834
71.8025 30.6771 3.97735
69.8358 33.2707 3.96728
68.961 29.0408 3.96606
67.6054 24.9146 3.96536
66.1168 27.6546 3.96776
64.0165 10.9835 4
64.685 23.8539 3.96578
63.8867 14.3302 3.97539
63.5058 17.456 3.96641
62.849 20.3475 3.9631
61.9525 22.9956 3.96779
60.6816 11.1011 3.9798
57.6071 11.4679 3.9707
72.1454 51.8506 0
69.9759 56.25 0
68.8339 53.1131 0.0236743
64.0165 64.0165 0
63.883 60.7638 0.0240636
66.6083 57.1328 0.0236686
63.4943 57.765 0.0330589
62.2255 65.694 2
58.8948 65.4102 2
69.7664 50.9878 2
67.7816 55.1637 2
66.6419 52.2064 2
62.3355 62.4204 2
64.6528 56.0267 2
62.1952 59.3928 2
61.7931 56.6615 2
60.6665 63.9741 3.98137
57.0235 66.7341 3.98775
57.5545 63.682 3.97236
67.5009 50.1753 3.96511
65.695 54.1707 3.96567
64.4546 51.3615 3.96561
60.7679 60.9197 3.96881
62.7707 55.0467 3.96386
60.6405 58.1375 3.9616
60.2546 55.747 3.96445
56.25 69.9759 4
58.3339 68.6801 2
60.3285 67.2507 0
58.9188 9.65856 3.98146
62.2254 9.30607 4
73.0099 49.554 0
74.2788 44.8158 0
71.2474 46.598 0.0238034
72.1668 42.0858 0.0225486
74.9194 39.9526 0
75 37.5 2
72.404 39.8025 2
71.7807 44.3523 2
69.7989 41.7897 2
70.5727 48.8129 2
68.9064 46.0134 2
72.4876 37.5126 3.9779
70.0372 39.6583 3.96774
69.4254 43.9073 3.96678
67.5195 41.4911 3.97045
68.2597 48.1061 3.96551
66.6189 45.4242 3.96928
74.9197 35.0474 0
74.2794 30.1841 0
72.1835 32.9441 0.0223519
71.2766 28.4321 0.0234544
65.694 12.7746 0
65.3208 16.1054 0.025294
69.8134 24.0599 0.0229947
68.3414 26.9541 0.0343758
66.7561 22.936 0.0347057
64.7065 19.2003 0.0341127
63.823 22.0605 0.0354189
72.4119 35.2248 2
71.8023 30.6777 2
69.835 33.2713 2
68.9608 29.0416 2
64.0165 10.9835 2
63.8888 14.3353 2
63.5044 17.457 2
67.6049 24.9156 2
66.1166 27.6552 2
62.8492 20.3477 2
64.6846 23.8545 2
61.9515 22.9964 2
60.6841 11.1053 2
57.6084 11.4605 2
70.054 35.3939 3.96766
69.4625 31.1521 3.96659
67.5867 33.6004 3.96994
66.6946 29.6399 3.96846
65.447 25.7216 3.96663
63.9659 28.2973 3.97365
62.3386 12.6588 3.9777
62.701 24.6873 3.96991
62.1922 15.7997 3.96774
61.7707 18.713 3.96206
61.0886 21.3972 3.96525
60.2101 23.8057 3.97155
59.2407 12.8078 3.96857
55.8702 10.2459 3.97333
56.3956 13.1643 3.9683
69.7666 50.989 0.0238943
62.2254 65.694 0
58.8925 65.4131 0.0146373
67.7812 55.167 0.0234589
66.6426 52.2073 0.0348241
62.3331 62.4244 0.0217642
62.1969 59.3929 0.0328438
64.6539 56.0274 0.0336162
61.792 56.661 0.037344
60.6686 63.9713 2
57.0255 66.7327 2
57.5552 63.6832 2
67.5004 50.1743 2
65.6941 54.1698 2
64.4546 51.3611 2
60.767 60.9215 2
62.771 55.0469 2
60.6426 58.1386 2
60.2542 55.7469 2
55.0694 67.9313 3.9894
59.2139 62.3419 3.97024
55.8019 64.9023 3.97764
56.3184 62.0531 3.97053
65.2391 49.3855 3.96678
63.6361 53.269 3.96457
62.2609 50.6023 3.96878
59.3211 59.5314 3.96511
60.9635 54.2654 3.96641
59.2281 56.9706 3.96252
59.1303 55.1308 3.96713
48.1004 68.5756 3.98537
50.9472 69.9313 3.99057
54.0858 71.1327 4
56.25 69.976 2
58.3339 68.6801 0
57.056 8.33817 3.98358
60.3285 7.74928 4
58.9217 9.66275 2
62.2255 9.30602 2
70.573 48.8135 0.0240542
71.7809 44.353 0.0229205
68.9066 46.0142 0.0339046
69.7997 41.7901 0.0326212
72.4042 39.8026 0.0216855
75 37.5 0
72.4869 37.5125 2
70.037 39.6582 2
69.4251 43.9068 2
67.5185 41.4908 2
68.2594 48.1052 2
66.6172 45.4236 2
70.1253 37.523 3.96773
67.7632 39.5101 3.97091
67.1383 43.4589 3.96988
65.368 41.1932 3.9771
65.9731 47.3981 3.96812
64.4436 44.8143 3.97462
72.412 35.2248 0.0216622
71.8025 30.6771 0.02265
69.8358 33.2707 0.0327229
68.961 29.0408 0.0339386
64.0165 10.9835 0
63.8867 14.3302 0.0246102
63.5058 17.456 0.033587
67.6054 24.9146 0.0346446
66.1168 27.6546 0.0322384
64.685 23.8539 0.0342228
62.849 20.3475 0.0368967
61.9525 22.9956 0.0322116
60.6816 11.1011 0.0201974
57.6071 11.4679 0.0293011
70.0538 35.3942 2
69.4623 31.1526 2
67.5858 33.6007 2
66.6937 29.6404 2
62.3411 12.6634 2
62.1906 15.8003 2
61.7712 18.7128 2
65.4467 25.7222 2
63.9637 28.2982 2
61.087 21.3979 2
62.6995 24.6882 2
60.2092 23.8068 2
59.2413 12.8078 2
56.3968 13.1616 2
55.872 10.2462 2
67.8035 35.5532 3.97054
67.1943 31.6357 3.96928
65.5248 33.9451 3.97691
64.4819 30.2271 3.97522
63.3699 26.4608 3.97194
61.9839 28.8429 3.97616
60.7693 14.2453 3.9685
60.8078 25.413 3.97415
60.589 17.1574 3.96191
60.1062 19.8752 3.96231
59.4555 22.3416 3.96751
58.7006 24.4216 3.97421
54.0346 9.14563 3.97551
57.8988 14.3733 3.9674
54.7782 12.0527 3.97059
55.2959 14.7086 3.96695
67.5009 50.1753 0.034889
57.0235 66.7341 0.0122541
60.6665 63.9741 0.0186282
57.5545 63.682 0.0276411
65.695 54.1707 0.0343251
64.4546 51.3615 0.0343945
60.7679 60.9197 0.0311871
60.6405 58.1375 0.0384049
62.7707 55.0467 0.0361378
60.2546 55.747 0.0355539
55.071 67.9303 2
59.2142 62.343 2
55.8021 64.9028 2
56.317 62.0541 2
65.2387 49.385 2
63.6363 53.2689 2
62.2604 50.6017 2
59.3205 59.5326 2
60.9637 54.2652 2
59.232 56.9713 2
59.1326 55.1309 2
53.0414 68.9994 3.99029
53.9647 66.007 3.9805
57.8697 60.8373 3.96877
54.6777 63.19 3.97259
55.1959 60.5698 3.96782
62.9981 48.6142 3.97075
61.5908 52.527 3.96751
60 49.9448 3.9711
57.9895 58.2265 3.9628
59.1638 53.8856 3.96837
57.9936 55.7505 3.96284
50.1071 67.8536 3.98452
47.4616 66.5735 3.9807
46.0542 69.1548 3.98607
48.1006 68.576 2
48.8011 70.7226 3.99092
50.9484 69.9308 2
51.8506 72.1454 4
54.0858 71.1327 2
56.25 69.9759 0
55.1011 7.14209 3.98717
58.3339 6.31992 4
57.0592 8.34074 2
60.3286 7.74926 2
58.9188 9.65856 0.0185368
62.2254 9.30607 0
68.2597 48.1061 0.0344886
69.4254 43.9073 0.0332197
66.6189 45.4242 0.0307216
67.5195 41.4911 0.0295524
70.0372 39.6583 0.0322634
72.4876 37.5126 0.0221035
70.1246 37.5231 2
67.7618 39.51 2
67.138 43.4585 2
65.365 41.1923 2
65.9729 47.3976 2
64.4415 44.8134 2
67.8643 37.5238 3.97092
65.6057 39.3629 3.97706
64.9845 43.0001 3.97634
63.4723 40.905 3.97699
63.7542 46.6745 3.97255
62.5004 44.1627 3.97649
70.054 35.3939 0.0323399
69.4625 31.1521 0.0334103
67.5867 33.6004 0.030056
66.6946 29.6399 0.0315361
62.3386 12.6588 0.022299
62.1922 15.7997 0.0322624
61.7707 18.713 0.0379429
65.447 25.7216 0.0333675
63.9659 28.2973 0.0263516
62.701 24.6873 0.0300926
61.0886 21.3972 0.0347537
60.2101 23.8057 0.0284508
59.2407 12.8078 0.0314255
56.3956 13.1643 0.0316975
55.8702 10.2459 0.0266735
67.8019 35.5534 2
67.1942 31.636 2
65.5212 33.9459 2
64.4796 30.228 2
60.7691 14.2457 2
60.5885 17.1571 2
60.1045 19.8758 2
63.3681 26.4617 2
61.9815 28.8439 2
59.4567 22.3423 2
60.8059 25.414 2
58.6995 24.4229 2
57.8975 14.3732 2
55.296 14.707 2
54.0365 9.14516 2
54.7788 12.0508 2
65.7041 35.677 3.97711
65.0047 32.1811 3.97618
64.0347 34.274 3.97696
62.3026 30.6914 3.9762
61.3913 27.1435 3.97542
60.5143 29.2222 3.97637
59.2965 15.7023 3.96387
59.0186 25.8984 3.97611
59.0516 18.4108 3.9613
58.5596 20.9396 3.96346
58.0178 23.1994 3.96905
57.6617 24.7816 3.97502
52.11 8.16097 3.97878
53.0513 11.0442 3.97174
56.6563 15.7962 3.96438
53.7945 13.7421 3.9667
54.3432 16.0702 3.96107
55.0694 67.9313 0.0106034
65.2391 49.3855 0.0332223
55.8019 64.9023 0.0223571
59.2139 62.3419 0.0297591
56.3184 62.0531 0.0294681
63.6361 53.269 0.0354278
62.2609 50.6023 0.0312192
59.3211 59.5314 0.0348869
59.2281 56.9706 0.0374753
60.9635 54.2654 0.0335871
59.1303 55.1308 0.0328704
53.0428 68.9988 2
53.9649 66.0077 2
57.868 60.8381 2
54.6771 63.1913 2
55.1939 60.5703 2
62.9969 48.6134 2
61.5907 52.5267 2
60.0006 49.9442 2
57.9876 58.2274 2
59.167 53.8855 2
57.9903 55.7489 2
52.0683 66.9959 3.98334
52.9499 64.2066 3.97743
56.6291 59.4506 3.96918
53.6683 61.5846 3.97262
54.2346 59.2737 3.97584
[...]
POINT_DATA 3012
SCALARS Jp_lamdaP float 4
LOOKUP_TABLE default
0.99971 1 1 0.99971
1 1 1 1
0.999718 1 1 0.999718
0.999657 1 1 0.999657
0.999711 1 1 0.999711
0.999694 1 1 0.999694
0.998937 1 1 0.998937
1 1 1 1
1 1 1 1
1 1 1 1
0.999785 1 1 0.999785
0.999059 1 1 0.999059
0.999644 1 1 0.999644
0.999658 1 1 0.999658
0.99972 1 1 0.99972
0.999681 1 1 0.999681
0.9997 1 1 0.9997
0.999727 1 1 0.999727
0.998939 1 1 0.998939
1 1 1 1
0.999637 1 1 0.999637
0.999689 1 1 0.999689
0.99881 1 1 0.99881
0.998913 1 1 0.998913
0.999703 1 1 0.999703
0.998956 1 1 0.998956
1.00954 1.01181 1 0.99775
1 1 1 1
0.999845 1 1 0.999845
0.999859 1 1 0.999859
1 1 1 1
0.999067 1 1 0.999067
0.999684 1 1 0.999684
0.99971 1 1 0.99971
0.999073 1 1 0.999073
1 1 1 1
0.999158 1 1 0.999158
0.99916 1 1 0.99916
1.00332 1.00559 1 0.997739
1 1 1 1
1 1 1 1
0.999829 1 1 0.999829
1 1 1 1
0.99966 1 1 0.99966
0.998738 1 1 0.998738
1 1 1 1
0.998974 1 1 0.998974
0.999702 1 1 0.999702
0.999737 1 1 0.999737
0.999702 1 1 0.999702
0.998944 1 1 0.998944
0.999812 1 1 0.999812
0.99966 1 1 0.99966
0.999716 1 1 0.999716
0.99971 1 1 0.99971
0.998808 1 1 0.998808
0.998959 1 1 0.998959
0.998915 1 1 0.998915
1.00996 1.01225 1 0.997736
1 1 1 1
0.999635 1 1 0.999635
0.998989 1 1 0.998989
0.998778 1 1 0.998778
0.998864 1 1 0.998864
1.01289 1.01545 1 0.997474
1.01102 1.01346 1 0.997592
0.999766 1 1 0.999766
0.999062 1 1 0.999062
1.00699 1.00916 1 0.997845
1.02694 1.03016 1 0.996874
1 1 1 1
1 1 1 1
1 1 1 1
0.999076 1 1 0.999076
1 1 1 1
1 1 1 1
0.998916 1 1 0.998916
0.999924 1 1 0.999924
0.999021 1 1 0.999021
0.999265 1 1 0.999262
1.00224 1.00451 1 0.997736
1 1 1 1
1.00093 1 1.00112 0.999812
0.998842 1 1 0.998842
0.998951 1 1 0.998951
1.01374 1.01647 1 0.997313
0.999782 1 1.00029 0.999495
1.00758 1.00997 1 0.997639
1 1.00212 1 0.997886
1.00929 1.01228 1 0.997044
1 1 1 1
1 1 1 1
1 1 1 1
1 1 1 1
1 1 1 1
0.999828 1 1 0.999828
0.998856 1 1 0.998856
0.999831 1 1 0.999831
0.99889 1 1 0.99889
1 1 1 1
0.998746 1 1 0.998746
0.998961 1 1 0.998961
1.01272 1.01567 1 0.9971
0.99901 1 1 0.99901
1.01509 1.018 1 0.997147
0.999665 1 1 0.999665
0.99968 1 1 0.99968
0.999725 1 1 0.999725
0.999728 1 1 0.999728
0.998807 1 1 0.998807
0.998919 1 1 0.998919
0.998965 1 1 0.998965
1.01036 1.01267 1 0.997721
1 1 1 1
0.999656 1 1 0.999656
0.998773 1 1 0.998773
0.998773 1 1 0.998773
0.999884 1 1 0.999884
0.999135 1 1 0.999135
0.998864 1 1 0.998864
1.01284 1.01544 1 0.997435
1.00768 1.00988 1 0.997827
1.01129 1.0137 1 0.997621
1.02687 1.03008 1 0.996881
0.998769 1 1 0.998769
0.998769 1 1 0.998769
1.01138 1.0141 1 0.997327
1.01279 1.01545 1 0.997374
1.01266 1.01521 1 0.997486
1.0358 1.03914 1 0.996778
1 1 1 1
1.02988 1.03315 1 0.996839
0.999508 1 1.00023 0.999276
1.00285 1.00502 1 0.997834
1.0234 1.02658 1 0.99691
1.03427 1.03768 1 0.996719
1.00125 1 1.00167 0.99958
1.00642 1 1.00786 0.998566
1 1 1 1
1 1 1 1
0.998922 1 1 0.998922
1 1 1 1
0.999323 1 1.0001 0.999226
0.999027 1 1 0.999027
1.00116 1.00344 1 0.997733
1 1 1 1
1.00049 1 1.00066 0.999835
0.998943 1 1 0.998943
0.999044 1 1 0.999044
1.01313 1.01586 1 0.997314
1.00001 1 1.00056 0.999456
1.00636 1.00874 1 0.997641
0.9994 1.00152 1 0.997885
1.01002 1.01303 1 0.99703
1.00099 1 1.00135 0.999642
0.999918 1 1 0.999918
1.00274 1 1.00391 0.998843
1.01523 1.01807 1 0.997209
1.01129 1.01385 1 0.997476
1.03291 1.03632 1 0.996702
0.999085 1.00044 1.00049 0.998159
1.01863 1.02172 1 0.996974
1.00617 1.00848 1.00057 0.997136
1.0184 1.0216 1 0.996864
1 1 1 1
1 1 1 1
1 1 1 1
1.00027 1 1.00056 0.99971
1 1 1 1
1 1 1 1
1 1 1 1
0.998806 1 1 0.998806
0.99877 1 1 0.99877
1 1 1 1
1 1 1 1
0.998747 1 1 0.998747
0.998878 1 1 0.998878
1.01314 1.01609 1 0.9971
0.998826 1 1 0.998826
1.0153 1.01821 1 0.997146
0.998743 1 1 0.998743
1.01158 1.01456 1 0.997063
1.014 1.01692 1 0.997135
1.03985 1.04332 1 0.996679
1.01558 1.01847 1 0.997161
1.04156 1.04501 1 0.996694
1 1 1 1
0.999678 1 1 0.999678
0.998536 1 1 0.998536
0.998769 1 1 0.998769
1 1 1 1
0.99921 1 1 0.99921
0.998866 1 1 0.998866
1.01276 1.01541 1 0.997395
1.01159 1.01397 1 0.99765
1.0084 1.01061 1 0.997809
1.02679 1.02999 1 0.996888
0.998766 1 1 0.998766
0.998764 1 1 0.998764
1.01126 1.01409 1 0.997207
1.01278 1.01543 1 0.997398
1 1 1 1
0.999408 1 1.0001 0.99931
1.00413 1.00623 1 0.997907
1.0126 1.01516 1 0.997482
1.03563 1.039 1 0.996757
1.02278 1.02596 1 0.996901
1.03009 1.03332 1 0.996874
1.03391 1.0373 1 0.996728
1.00119 1 1.00163 0.999568
1.00467 1 1.00611 0.998568
1.01106 1.01402 1 0.997084
1.01167 1.01435 1 0.997357
1.03702 1.0404 1 0.996754
1.03601 1.03941 1 0.996722
1.03286 1.03612 1 0.996858
1.04424 1.04758 1 0.996812
1.00055 1 1.00112 0.99943
1.03673 1.04007 1 0.996781
0.999707 1.00159 1.00011 0.998016
1.01587 1.01893 1 0.997
1.03182 1.03526 1 0.996683
1.03525 1.0385 1 0.996873
1.00311 1.00006 1.00471 0.99835
1.00249 1 1.00366 0.998838
1.00335 1 1.00546 0.997903
0.998869 1 1 0.998869
1 1 1 1
1.00003 1 1.00017 0.999857
0.998983 1 1 0.998983
1.01252 1.01524 1 0.997315
1.00011 1 1.00066 0.99946
0.998625 1.0007 1.00004 0.997884
1.00516 1.00753 1 0.997644
1.01092 1.01395 1 0.997016
1.00078 1 1.00111 0.999664
0.999933 1 1 0.999933
1.00322 1 1.00438 0.998844
1.01487 1.01771 1 0.997207
1.01031 1.01287 1 0.99748
1.03302 1.03645 1 0.996698
0.998741 1.00013 1.00045 0.998163
1.01975 1.02284 1 0.99698
1.00532 1.00774 1.00047 0.997131
1.01915 1.02236 1 0.996855
0.999968 1 1 0.999968
1.00107 1 1.0026 0.998476
1.00126 1 1.00205 0.999212
1.00332 1 1.00515 0.998178
1.03716 1.04064 1 0.996657
1.02712 1.03038 1 0.996835
1.03821 1.04174 1 0.996609
1.00214 1.00421 1.00049 0.997454
1.02605 1.02929 1 0.99685
1.01495 1.0166 1.00158 0.996806
1.02708 1.03042 1 0.996756
0.999717 1 1 0.999717
0.999996 1 1 0.999996
1 1 1 1
1 1 1 1
1 1 1 1
0.999824 1 1 0.999824
1 1 1 1
1.00096 1 1.00126 0.999696
1 1 1 1
0.998827 1 1 0.998827
0.998791 1 1 0.998791
1.01563 1.01853 1 0.997145
1.01353 1.01648 1 0.9971
0.998749 1 1 0.998749
1 1 1 1
0.998742 1 1 0.998742
1.01189 1.01487 1 0.997063
1.01438 1.0173 1 0.997134
1.0393 1.04277 1 0.996677
1.01564 1.01853 1 0.997158
1.04161 1.04506 1 0.996692
1.01098 1.01397 1 0.997059
1.03879 1.04228 1 0.996647
1.04067 1.04411 1 0.996699
1.04867 1.05287 0.999098 0.996916
1.04105 1.04453 1 0.996671
1.05002 1.05352 0.999842 0.996834
0.998764 1 1 0.998764
0.998759 1 1 0.998759
1.01114 1.0141 1 0.997087
1.0128 1.01542 1 0.997423
1 1 1 1
0.999345 1 1 0.999345
1.00535 1.00738 1 0.99798
1.01255 1.01511 1 0.997478
1.03551 1.0389 1 0.996735
1.03026 1.03345 1 0.99691
1.02218 1.02536 1 0.996893
1.03368 1.03707 1 0.996736
1.00134 1 1.00178 0.999557
1.00384 1 1.00528 0.99857
1.01098 1.01396 1 0.997063
1.01168 1.01437 1 0.997353
1.03699 1.04035 1 0.99677
1.0361 1.03949 1 0.996739
1.00026 1 1.00084 0.999419
1.00063 1.00256 1.00007 0.998014
1.01568 1.0187 1 0.997034
1.03316 1.03643 1 0.996845
1.04448 1.04778 1 0.996848
1.03133 1.03479 1 0.99666
1.0367 1.04005 1 0.996785
1.03545 1.0387 1 0.996872
1.00271 1.00008 1.00429 0.998352
1.00389 1.00006 1.00594 0.997906
1.00333 1 1.0045 0.998836
1.03702 1.04044 1 0.996716
1.0365 1.03984 1 0.996788
1.04859 1.05254 0.999381 0.996862
1.04579 1.04926 0.999858 0.99683
1.03972 1.04302 1 0.996842
1.04126 1.04591 0.998436 0.997119
0.999051 1.00026 1.0006 0.998197
1.03762 1.04076 1 0.996987
1.00578 1.00848 1 0.997317
1.02294 1.02645 1 0.996589
1.03168 1.03518 1 0.996611
1.03055 1.03354 1 0.99711
1.0006 1 1.0015 0.999094
0.998904 1.00042 1.00067 0.997816
1.0078 1 1.00976 0.998058
1.00143 1.00111 1.00266 0.997668
1.01453 1.01737 1 0.997206
0.999949 1 1 0.999949
1.00067 1 1.00098 0.999686
1.00376 1 1.00492 0.998845
1.00934 1.01188 1 0.997484
1.03315 1.03657 1 0.996694
0.998569 1 1.0004 0.998167
1.00435 1.00691 1.00033 0.997125
1.02083 1.02391 1 0.996986
1.01926 1.02249 1 0.996846
0.999975 1 1 0.999975
1.00189 1 1.00342 0.998477
1.00074 1 1.00152 0.999221
1.00393 1 1.00577 0.998172
1.03705 1.04053 1 0.996652
1.02731 1.03057 1 0.996834
1.03786 1.0414 1 0.996607
1.00078 1.00287 1.00045 0.99746
1.02582 1.02906 1 0.996854
1.01483 1.01633 1.00173 0.996794
1.02691 1.03017 1 0.996834
0.999989 1 1 0.999989
0.999643 1 1.00017 0.999469
1.00039 1.00076 1.00178 0.997849
1.00342 1 1.00491 0.998521
1.00099 1.00005 1.00308 0.997869
1.0426 1.04611 1 0.996646
1.03217 1.03559 1 0.996702
1.03407 1.03748 1 0.996712
1.00618 1.00713 1.00199 0.99707
1.02485 1.02811 1 0.996831
1.01547 1.01811 1.00086 0.996551
0.999681 1 1 0.999681
0.999191 1 1 0.999191
0.999745 1 1 0.999745
0.999719 1 1 0.999719
0.999999 1 1 0.999999
0.999997 1 1 0.999997
1 1 1 1
1 1 1 1
1 1 1 1
0.999919 1 1 0.999919
1 1 1 1
0.999889 1 1.00008 0.999808
1 1 1 1
1.00106 1 1.00137 0.999682
1 1 1 1
1.01563 1.01853 1 0.997156
1.0147 1.01762 1 0.997134
1.04139 1.04485 1 0.996689
1.03875 1.04222 1 0.996675
1.01227 1.01525 1 0.997063
0.998741 1 1 0.998741
1.01115 1.01413 1 0.997059
1.03849 1.04198 1 0.996647
1.04033 1.04378 1 0.996696
1.04884 1.05334 0.998791 0.996934
1.04037 1.04385 1 0.996667
1.04954 1.05299 0.999894 0.996832
1.03758 1.04108 1 0.996638
1.04758 1.05258 0.998304 0.996938
1.05016 1.05398 0.999477 0.996891
1.04611 1.05337 0.995948 0.99715
1.04584 1.04926 1 0.996745
1.04718 1.05292 0.997368 0.997169
1.01094 1.01394 1 0.997042
1.01171 1.0144 1 0.997348
1.03697 1.04032 1 0.996787
1.03616 1.03953 1 0.996757
0.999957 1 1.00055 0.999409
1.00149 1.00347 1.00002 0.998011
1.01576 1.01874 1 0.997068
1.03347 1.03675 1 0.996832
1.04472 1.04798 1 0.996883
1.03674 1.04008 1 0.99679
1.03067 1.03415 1 0.996636
1.03565 1.03891 1 0.99687
1.00197 1.00011 1.00351 0.998355
1.0043 1.00014 1.00626 0.997909
1.00372 1 1.00489 0.998834
1.03712 1.04057 1 0.996688
1.03673 1.04007 1 0.996785
1.04797 1.0521 0.999169 0.996901
1.04607 1.04959 0.999828 0.996818
0.999514 1.00059 1.00073 0.998195
1.00712 1.00984 1 0.997311
1.02168 1.0251 1.00003 0.996634
1.03993 1.04325 1 0.996817
1.04106 1.04587 0.998229 0.997168
1.03217 1.03571 1 0.996574
1.03743 1.04056 1 0.99699
1.03124 1.03419 1 0.997144
0.999813 1.00083 1.00117 0.997817
1.00151 1.00111 1.00277 0.997641
1.00119 1 1.0021 0.999091
1.00727 1 1.00919 0.998096
1.04808 1.05222 0.999174 0.996885
1.048 1.05194 0.99938 0.996864
1.04309 1.05022 0.99614 0.997063
1.04159 1.04893 0.995803 0.99719
1.03935 1.04281 0.999579 0.997107
1.03778 1.04478 0.995948 0.997351
1.00002 1.0024 1 0.99762
1.03226 1.03581 0.99923 0.997338
1.01136 1.01453 1 0.996877
1.02157 1.0251 1.00018 0.996379
1.03308 1.03662 1 0.996583
1.03183 1.03475 1 0.99718
0.999493 1 1.00019 0.999299
1.00607 1 1.00776 0.998327
0.999876 1.00232 1 0.997559
1.00423 1 1.00644 0.9978
1.00142 1.00168 1.00217 0.99758
0.999982 1 1 0.999982
1.03687 1.04036 1 0.996647
1.00012 1 1.00089 0.99923
1.00268 1 1.00421 0.998478
1.00459 1 1.00643 0.998167
1.0275 1.03076 1 0.996833
1.03755 1.04108 1 0.996604
0.99953 1.00156 1.00051 0.997466
1.01576 1.01707 1.00193 0.996783
1.0257 1.02894 1 0.996858
1.0272 1.03038 1 0.99691
0.999992 1 1 0.999992
0.999552 1 1.00007 0.999479
0.999644 1.00047 1.00132 0.997851
1.00433 1 1.00581 0.99852
1.00146 1.00004 1.00357 0.997852
1.04254 1.04605 1 0.99664
1.03211 1.03553 1 0.9967
1.03406 1.03748 1 0.996701
1.00588 1.00668 1.00213 0.997075
1.02727 1.03054 1 0.996829
1.01558 1.0181 1.00096 0.996572
0.999611 1 1 0.999611
1.00042 1 1.00157 0.998851
1.00057 1.00258 1.00048 0.997514
1.00569 1 1.00755 0.998152
1.00048 1.00065 1.00203 0.997797
1.03944 1.04275 1 0.996823
1.02855 1.03192 1 0.996741
1.0332 1.0364 1 0.996916
1.00286 1.00219 1.00379 0.996887
1.01385 1.01742 1 0.99649
0.999683 1 1 0.999683
0.999116 1 1 0.999116
0.999166 1 1 0.999166
0.99892 1 1 0.99892
0.999207 1 1 0.999207
0.999759 1 1 0.999759
0.999746 1 1 0.999746
1 1 1 1
0.999721 1 1 0.999721
0.999999 1 1 0.999999
1 1 1 1
0.999998 1 1 0.999998
1 1 1 1
1 1 1 1
0.999978 1 1 0.999978
0.999901 1 1 0.999901
1 1 1 1
1 1 1 1
1.00031 1 1.00052 0.999792
1 1 1 1
1.03982 1.0433 1 0.996663
1.04019 1.04364 1 0.996694
1.04926 1.05266 0.999948 0.99683
1.04905 1.05385 0.99849 0.996952
1.03808 1.04157 1 0.996647
1.01123 1.01421 1 0.997059
1.0375 1.041 1 0.996639
1.04753 1.05246 0.998383 0.996932
1.05018 1.05391 0.999563 0.99689
1.04535 1.05313 0.995412 0.997182
1.04657 1.04999 1 0.996739
1.047 1.05287 0.997225 0.997192
1.04766 1.05226 0.998718 0.996906
1.04397 1.05166 0.995551 0.997124
1.04593 1.05368 0.995404 0.997227
1.04361 1.05377 0.993029 0.997308
1.04504 1.04869 0.999503 0.997021
1.04413 1.05304 0.99413 0.9974
1.03711 1.04059 1 0.996659
1.03692 1.04027 1 0.996783
1.04733 1.05163 0.998964 0.996939
1.04629 1.04985 0.999796 0.996806
1.00004 1.001 1.00085 0.998193
1.0081 1.01082 1 0.997306
1.02027 1.02349 1.00018 0.99668
1.0401 1.04345 1 0.996792
1.04084 1.04584 0.997995 0.997217
1.03715 1.04028 1 0.996993
1.03265 1.03624 1 0.996537
1.03139 1.03431 1 0.997178
1.00077 1.00117 1.00179 0.997818
1.00161 1.0011 1.0029 0.997613
1.00168 1 1.0026 0.999086
1.00626 1 1.00814 0.998135
1.04781 1.05194 0.999191 0.996885
1.0477 1.05153 0.999512 0.996843
1.04327 1.05049 0.996016 0.997096
1.04201 1.0489 0.996243 0.997172
1.00107 1.00347 1 0.997612
1.0099 1.01299 1.00003 0.99692
1.02203 1.02535 1.00039 0.996369
1.03909 1.04242 0.999748 0.99706
1.03682 1.04408 0.995628 0.997409
1.03034 1.03389 1 0.996569
1.03329 1.03677 0.999302 0.997339
1.03244 1.0353 1 0.997237
1.00007 1.00252 1 0.997557
1.00128 1.00225 1.00146 0.997581
1.00472 1.00003 1.0069 0.997793
0.999789 1 1.00053 0.999262
1.00554 1 1.00719 0.998363
1.04278 1.05094 0.995112 0.997111
1.04274 1.05103 0.994953 0.997144
1.03755 1.0485 0.992144 0.997395
1.03378 1.0408 0.995828 0.997417
1.00284 1.00555 1 0.997306
1.03718 1.04082 0.99899 0.997517
1.00653 1.00965 1.00029 0.996621
1.0192 1.0226 1.00051 0.996167
1.02789 1.03143 1 0.996564
0.99944 1 1 0.99944
1.00234 1 1.00369 0.99866
1.00531 1 1.00724 0.99808
1.00166 1.0042 1 0.997468
1.00392 1 1.0064 0.997537
1.00068 1.00224 1.001 0.997445
0.999994 1 1 0.999994
0.999488 1 1 0.999488
1.04248 1.046 1 0.996634
1.00533 1 1.00683 0.998519
0.998733 1.00014 1.00074 0.997853
1.00173 1 1.0039 0.997835
1.03192 1.03534 1 0.996698
1.0339 1.03733 1 0.99669
1.0051 1.00574 1.00229 0.99708
1.0148 1.01748 1.00077 0.996592
1.02959 1.03287 1 0.996826
0.999616 1 1 0.999616
1.00022 1 1.00137 0.998855
1.00014 1.00222 1.00041 0.997511
1.00678 1 1.00865 0.998146
1.00026 1.00073 1.00174 0.997798
1.03943 1.04275 1 0.996816
1.0289 1.03227 1 0.99673
1.03302 1.03619 1 0.996942
1.00374 1.00365 1.00324 0.996848
1.01273 1.01627 1.00006 0.996461
0.999063 1 1 0.999063
1.00567 1 1.00726 0.998422
1.0021 1.00273 1.002 0.997387
1.00513 1.00092 1.0063 0.997913
1.00195 1.00328 1.001 0.997682
1.03917 1.04314 0.998886 0.997302
1.02772 1.03118 1 0.996642
1.02948 1.03264 1 0.996945
1.00532 1.00429 1.00433 0.996707
1.00458 1.00834 1 0.996273
0.999686 1 1 0.999686
0.999134 1 1 0.999134
0.998841 1 1 0.998841
0.999142 1 1 0.999142
0.999206 1 1 0.999206
0.998889 1 1 0.998889
0.998777 1 1 0.998777
0.998836 1 1 0.998836
0.999219 1 1 0.999219
0.999753 1 1 0.999753
0.999759 1 1 0.999759
1 1 1 1
0.999748 1 1 0.999748
1 1 1 1
1 1 1 1
1 1 1 1
1 1 1 1
1 1 1 1
0.999998 1 1 0.999998
0.999965 1 1 0.999965
1 1 1 1
0.999883 1 1 0.999883
1 1 1 1
1 1 1 1
1.04724 1.05067 1 0.996732
1.05 1.05364 0.999648 0.99689
1.04681 1.05279 0.997096 0.997214
1.04453 1.05287 0.994855 0.997213
1.04754 1.05237 0.998483 0.996927
1.03756 1.04105 1 0.99664
1.04764 1.05213 0.998845 0.996887
1.04448 1.05177 0.995949 0.997117
1.04576 1.05339 0.99553 0.997211
1.04272 1.05335 0.992565 0.99732
1.04452 1.04801 0.999649 0.997022
1.04248 1.0521 0.993406 0.997441
1.04458 1.05156 0.99625 0.997099
1.04394 1.05481 0.992368 0.997303
1.04384 1.05531 0.991699 0.997411
1.04 1.04915 0.993792 0.99747
1.04761 1.05171 0.999209 0.996885
1.0475 1.05122 0.99964 0.996821
1.04346 1.05077 0.99591 0.997129
1.04249 1.04895 0.996681 0.997155
1.0023 1.0047 1 0.997604
1.0088 1.01187 1 0.996964
1.0224 1.02554 1.00058 0.996359
1.03887 1.04205 0.999936 0.997013
1.0358 1.04333 0.995303 0.997466
1.03459 1.03801 0.999366 0.997341
1.02822 1.03177 1 0.996554
1.03427 1.03708 1 0.997294
1.0006 1.00305 1 0.997555
1.00112 1.00285 1.00069 0.997582
1.00613 1.00004 1.00832 0.997787
1.00004 1 1.00081 0.999226
1.00536 1 1.00697 0.9984
1.04337 1.05144 0.995196 0.997114
1.04306 1.05134 0.99497 0.997139
1.03735 1.04776 0.992653 0.997386
1.00325 1.00596 1 0.9973
1.00701 1.01012 1.00026 0.996664
1.01794 1.02109 1.00076 0.996155
1.03434 1.04114 0.996055 0.997403
1.02988 1.03333 1 0.996667
1.03381 1.03769 0.998766 0.997486
0.999469 1 1 0.999469
1.0022 1.00476 1 0.997457
0.999688 1.00161 1.00051 0.997575
1.00479 1.00002 1.00726 0.997526
1.00553 1 1.00744 0.998102
1.00231 1 1.00369 0.998626
1.04226 1.05306 0.992529 0.997194
1.04066 1.05465 0.989388 0.997318
1.03134 1.04606 0.988423 0.99748
1.0334 1.04409 0.992121 0.997621
1.00418 1.00709 1 0.99711
1.02873 1.03189 0.999841 0.997097
1.00367 1.00584 1.00165 0.996201
1.01 1.013 1.00104 0.996002
0.999672 1 1 0.999672
0.999569 1 1.00064 0.998928
1.00347 1 1.00515 0.998327
1.00549 1 1.00782 0.99769
1.00221 1.00412 1.00082 0.997283
1.00655 1.00092 1.00838 0.997261
0.999622 1 1 0.999622
0.999933 1 1.00107 0.998859
1.03965 1.04297 1 0.996809
1.00778 1 1.00965 0.998141
0.999709 1.00194 1.00027 0.997508
0.999686 1.00036 1.00152 0.9978
1.0295 1.03289 1 0.996718
1.03317 1.03631 1 0.996968
1.00491 1.00538 1.00273 0.996809
1.01165 1.015 1.00027 0.996432
0.999066 1 1 0.999066
1.00565 1 1.00725 0.998417
1.0024 1.00303 1.00198 0.997396
1.00441 1.00035 1.00614 0.997922
1.00181 1.00358 1.00048 0.997764
1.04002 1.04417 0.998671 0.997347
1.02725 1.03069 1 0.99666
1.03112 1.03421 1 0.997017
1.00512 1.00388 1.00458 0.996671
1.00498 1.00878 1.00003 0.996207
0.999208 1 1.00047 0.998736
1.00641 1 1.00839 0.998041
1.00561 1.00457 1.00378 0.997262
1.00172 1.00255 1.00161 0.997564
1.03732 1.05653 0.984182 0.9976
1.03311 1.03646 0.999379 0.997389
1.01648 1.02018 1 0.996373
1.00689 1.00635 1.00426 0.996289
0.999153 1 1 0.999153
0.998854 1 1 0.998854
0.998766 1 1 0.998766
0.999205 1 1 0.999205
0.998859 1 1 0.998859
0.999218 1 1 0.999218
0.998775 1 1 0.998775
0.998848 1 1 0.998848
0.998771 1 1 0.998771
0.998686 1 1.00001 0.998672
0.998798 1 1 0.998798
0.9992 1 1 0.9992
0.99973 1 1 0.99973
0.999752 1 1 0.999752
1 1 1 1
0.999759 1 1 0.999759
1 1 1 1
1 1 1 1
1 1 1 1
1 1 1 1
1 1 1 1
1 1 1 1
0.999994 1 1 0.999994
1 1 1 1
0.999952 1 1 0.999952
1 1 1 1
1 1 1 1
1.04391 1.04723 0.999808 0.997023
1.04563 1.05317 0.995632 0.997195
1.0409 1.05123 0.99268 0.997482
1.04189 1.053 0.9921 0.997332
1.045 1.05189 0.996338 0.997109
1.04754 1.05194 0.998943 0.996867
1.04436 1.05149 0.996108 0.997098
1.04376 1.05446 0.992539 0.997294
1.04286 1.05452 0.991506 0.99741
1.04148 1.0503 0.994105 0.99748
1.04479 1.05485 0.9932 0.997247
1.04551 1.06089 0.988013 0.997459
1.04488 1.05978 0.988381 0.997534
1.04394 1.05195 0.995258 0.997116
1.04331 1.05159 0.99498 0.997134
1.03724 1.04704 0.993243 0.997377
1.00327 1.00599 1 0.997294
1.00688 1.01003 1.00018 0.996708
1.01648 1.01955 1.00085 0.996144
1.03489 1.04147 0.996282 0.997389
1.02991 1.03404 0.998544 0.997454
1.03082 1.03416 1 0.996769
1.00149 1.00406 1 0.997446
0.998276 1.00057 1 0.997704
1.00538 1.00012 1.00777 0.997514
0.999499 1 1 0.999499
1.00478 1 1.00667 0.998124
1.00228 1 1.00369 0.998591
1.04301 1.05355 0.992769 0.997201
1.04015 1.05444 0.989091 0.997325
1.0315 1.04564 0.988984 0.997472
1.00229 1.00521 1 0.997101
1.0037 1.00604 1.0014 0.99628
1.01034 1.01341 1.0009 0.996072
1.03355 1.04382 0.992517 0.997626
1.02713 1.03072 0.99944 0.997078
0.999729 1 1 0.999729
0.99951 1 1.00058 0.998927
1.00007 1.00274 1 0.997333
1.00874 1.00084 1.01051 0.997403
1.00529 1 1.00758 0.997732
1.00337 1 1.00509 0.998296
1.04308 1.05819 0.988309 0.99738
1.03257 1.05436 0.981856 0.997436
1.02868 1.04557 0.986142 0.997669
1.02348 1.0331 0.993033 0.997637
1.00198 1.00412 1.0011 0.996782
1.00911 1.01146 1.0014 0.996282
1.0034 1.00478 1.00264 0.995989
0.999864 1 1 0.999864
0.999397 1 1 0.999397
0.999143 1 1 0.999143
1.00023 1 1.00175 0.998485
1.00418 1 1.00621 0.99798
1.00848 1 1.01096 0.997543
0.999296 1.00191 1 0.997387
1.03139 1.00078 1.03305 0.997622
0.999069 1 1 0.999069