# vtk DataFile Version 2.0
Wound Healing Simulation
ASCII
DATASET UNSTRUCTURED_GRID
POINTS 3012 float
69.9759 18.75 4
67.2507 60.3285 4
69.976 18.75 2
73.0099 25.446 4
71.1327 20.9142 4
68.6801 16.6661 4
67.825 19.9262 3.98149
67.2507 60.3286 2
71.1327 54.0858 4
68.6801 58.3339 4
65.6939 62.2254 4
65.3115 59.0007 3.98026
74.6784 42.3946 4
73.7221 47.2057 4
69.9759 18.75 0
73.0099 25.446 2
68.6801 16.6661 2
71.1327 20.9142 2
67.8256 19.9293 2
74.6792 32.6053 4
73.7222 27.7943 4
72.1454 23.1494 4
70.6137 26.2208 3.98094
68.8852 21.958 3.9818
67.2507 14.6715 4
66.6365 17.9723 3.9806
65.7951 21.0265 3.97123
67.2507 60.3285 0
71.1327 54.0858 2
68.6801 58.3339 2
65.694 62.2255 2
65.3126 58.997 2
72.1454 51.8506 4
69.9759 56.25 4
68.8359 53.1129 3.98082
64.0165 64.0165 4
66.6102 57.1335 3.9811
63.8848 60.7653 3.98121
63.498 57.7686 3.9718
60.3285 67.2507 4
74.6792 42.3947 2
73.7222 47.2057 2
74.9194 39.9526 4
74.2788 44.8158 4
72.1679 42.0854 3.98033
73.0099 49.554 4
71.2489 46.5979 3.98009
73.0099 25.446 0
71.1327 20.9142 0
68.6801 16.6661 0
67.825 19.9262 0.018511
74.6792 32.6053 2
73.7222 27.7943 2
67.2508 14.6715 2
72.1455 23.1494 2
70.6137 26.2213 2
66.6374 17.9762 2
68.8855 21.9601 2
65.7945 21.0273 2
74.9197 35.0474 4
74.2794 30.1841 4
72.1846 32.9433 3.98068
71.2778 28.4313 3.98043
69.8151 24.0595 3.98156
68.345 26.9519 3.97
66.7605 22.934 3.97062
65.694 12.7746 4
65.3227 16.1042 3.9801
64.7114 19.1971 3.97201
63.8821 22.0391 3.96743
71.1327 54.0858 0
65.6939 62.2254 0
68.6801 58.3339 0
65.3115 59.0007 0.019744
72.1455 51.8506 2
69.9759 56.25 2
68.836 53.111 2
64.0165 64.0165 2
66.6111 57.1299 2
63.8864 60.762 2
63.4974 57.7684 2
62.2254 65.694 4
58.8943 65.414 3.99014
69.7685 50.9888 3.98075
67.7832 55.1671 3.98091
66.6474 52.208 3.96963
62.3355 62.4272 3.98523
64.6588 56.0299 3.97179
62.1999 59.3993 3.97077
61.8173 56.6745 3.96739
58.3339 68.6801 4
60.3285 67.2508 2
73.7221 47.2057 0
74.6784 42.3946 0
74.9197 39.9526 2
74.2794 44.8159 2
72.1674 42.0854 2
73.0099 49.554 2
71.2488 46.5977 2
75 37.5 4
72.4052 39.8021 3.98087
71.7822 44.3527 3.98038
69.8025 41.7892 3.96989
70.5747 48.8134 3.98028
68.9105 46.0139 3.96951
74.6792 32.6053 0
73.7222 27.7943 0
67.2507 14.6715 0
72.1454 23.1494 0
70.6137 26.2208 0.0190584
68.8852 21.958 0.018198
66.6365 17.9723 0.0193952
65.7951 21.0265 0.0287728
74.9197 35.0474 2
74.2794 30.1841 2
72.1841 32.9436 2
71.2777 28.4317 2
65.694 12.7745 2
65.3241 16.1083 2
69.8152 24.0606 2
68.3449 26.9524 2
64.7109 19.1978 2
66.7601 22.9348 2
63.8815 22.0395 2
72.413 35.2241 3.98096
71.8036 30.6762 3.98073
69.8385 33.2684 3.97022
68.9643 29.0385 3.96995
67.6094 24.9126 3.97018
66.1884 27.6366 3.9673
64.0165 10.9835 4
64.7519 23.8328 3.96744
63.8893 14.3281 3.98248
63.5103 17.4513 3.97165
62.9014 20.3258 3.96732
62.0693 22.954 3.96704
60.6834 11.0984 3.98642
57.6115 11.452 3.97798
72.1454 51.8506 0
69.9759 56.25 0
68.8359 53.1129 0.0191786
64.0165 64.0165 0
63.8848 60.7653 0.0187899
66.6102 57.1335 0.0188978
63.498 57.7686 0.0282035
62.2255 65.694 2
58.8955 65.4133 2
69.7684 50.9879 2
67.7836 55.1642 2
66.6469 52.2073 2
62.3374 62.4249 2
64.6583 56.0294 2
62.1993 59.3997 2
61.8167 56.6745 2
60.6682 63.9766 3.98758
57.0254 66.7347 3.99135
57.5572 63.6893 3.98064
67.5056 50.1756 3.9693
65.6998 54.1718 3.97028
64.532 51.3814 3.96635
60.7715 60.934 3.97554
62.8151 55.0628 3.96712
60.651 58.1489 3.96499
60.3192 55.7746 3.96717
56.25 69.9759 4
58.3339 68.6801 2
60.3285 67.2507 0
58.9208 9.65659 3.98779
62.2254 9.30607 4
73.0099 49.554 0
74.2788 44.8158 0
71.2489 46.5979 0.0199139
72.1679 42.0854 0.0196673
74.9194 39.9526 0
75 37.5 2
72.4051 39.8023 2
71.7821 44.3525 2
69.8021 41.7889 2
70.5746 48.8132 2
68.9105 46.0134 2
72.4886 37.512 3.98056
70.0398 39.657 3.96998
69.4288 43.9068 3.96978
67.5901 41.4959 3.96814
68.264 48.1061 3.96926
66.6992 45.4368 3.96738
74.9197 35.0474 0
74.2794 30.1841 0
72.1846 32.9433 0.0193208
71.2778 28.4313 0.0195656
65.694 12.7746 0
65.3227 16.1042 0.0199024
69.8151 24.0595 0.0184384
68.345 26.9519 0.0299957
66.7605 22.934 0.0293751
64.7114 19.1971 0.0279865
63.8821 22.0391 0.0325681
72.413 35.2242 2
71.8036 30.6767 2
69.8381 33.2688 2
68.9643 29.039 2
64.0165 10.9835 2
63.8913 14.3314 2
63.5097 17.4521 2
67.6091 24.9133 2
66.1884 27.6369 2
62.9007 20.326 2
64.7515 23.8332 2
62.0684 22.9543 2
60.6856 11.1007 2
57.6123 11.4508 2
70.0566 35.3919 3.97022
69.4655 31.1497 3.97
67.6506 33.5916 3.96805
66.7654 29.6245 3.96747
65.5186 25.7015 3.96731
64.1016 28.265 3.96962
62.3412 12.6556 3.98512
62.8268 24.6476 3.96791
62.1964 15.7904 3.97295
61.8061 18.6934 3.967
61.1975 21.3537 3.9656
60.3688 23.7475 3.96873
59.2451 12.7838 3.97637
55.8739 10.237 3.9806
56.4037 13.1251 3.97449
69.7685 50.9888 0.0192511
62.2254 65.694 0
58.8943 65.414 0.0098622
67.7832 55.1671 0.0190884
66.6474 52.208 0.0303705
62.3355 62.4272 0.0147705
62.1999 59.3993 0.0292345
64.6588 56.0299 0.0282129
61.8173 56.6745 0.0326112
60.6699 63.9752 2
57.0263 66.7344 2
57.5573 63.6908 2
67.5053 50.1749 2
65.6992 54.1712 2
64.5317 51.3811 2
60.7713 60.9351 2
62.8145 55.0627 2
60.6506 58.1491 2
60.3187 55.7744 2
55.0712 67.9316 3.99191
59.2179 62.3624 3.97692
55.8044 64.9085 3.98453
56.3251 62.0829 3.97524
65.3234 49.4044 3.96654
63.701 53.288 3.96662
62.4033 50.6384 3.96693
59.329 59.5488 3.97007
61.066 54.2985 3.96582
59.2737 56.9953 3.96337
59.2298 55.1677 3.96547
48.1022 68.5775 3.98742
50.949 69.9312 3.99207
54.0858 71.1327 4
56.25 69.976 2
58.3339 68.6801 0
57.0583 8.33635 3.98918
60.3285 7.74928 4
58.9228 9.65799 2
62.2255 9.30602 2
70.5747 48.8134 0.0197179
71.7822 44.3527 0.0196218
68.9105 46.0139 0.0304941
69.8025 41.7892 0.030109
72.4052 39.8021 0.0191297
75 37.5 0
72.4881 37.5121 2
70.0398 39.6569 2
69.4287 43.9064 2
67.59 41.4957 2
68.2639 48.1055 2
66.6989 45.4365 2
70.1279 37.5213 3.97013
67.8296 39.5114 3.96824
67.2137 43.4675 3.96777
65.5002 41.2039 3.97157
66.0586 47.4144 3.96699
64.5936 44.8378 3.96993
72.413 35.2241 0.0190377
71.8036 30.6762 0.0192713
69.8385 33.2684 0.0297812
68.9643 29.0385 0.0300505
64.0165 10.9835 0
63.8893 14.3281 0.0175186
63.5103 17.4513 0.0283549
67.6094 24.9126 0.0298165
66.1884 27.6366 0.0327029
64.7519 23.8328 0.0325621
62.9014 20.3258 0.0326834
62.0693 22.954 0.0329633
60.6834 11.0984 0.0135836
57.6115 11.452 0.022024
70.0566 35.3921 2
69.4655 31.1501 2
67.6506 33.5917 2
66.7655 29.6247 2
62.3432 12.6587 2
62.1962 15.7902 2
61.8052 18.6937 2
65.5184 25.7018 2
64.1007 28.2653 2
61.1966 21.354 2
62.8263 24.648 2
60.3687 23.748 2
59.2458 12.7836 2
56.4042 13.1236 2
55.8746 10.2357 2
67.8667 35.5477 3.96828
67.2592 31.6236 3.96778
65.6532 33.9306 3.97158
64.6144 30.2001 3.97022
63.5018 26.4242 3.96891
62.1685 28.7946 3.97336
60.7741 14.2281 3.97609
60.9783 25.3572 3.97059
60.6052 17.1397 3.96732
60.204 19.8307 3.96419
59.6051 22.2804 3.96593
58.8929 24.348 3.97127
54.0372 9.1384 3.9825
57.9077 14.3425 3.97532
54.7856 12.0201 3.97559
55.3088 14.6638 3.97315
67.5056 50.1756 0.0307034
57.0254 66.7347 0.00865062
60.6682 63.9766 0.0124246
57.5572 63.6893 0.0193638
65.6998 54.1718 0.0297154
64.532 51.3814 0.0336525
60.7715 60.934 0.0244629
60.651 58.1489 0.0350142
62.8151 55.0628 0.0328752
60.3192 55.7746 0.0328288
55.0718 67.9315 2
59.218 62.3637 2
55.8043 64.9095 2
56.3247 62.0849 2
65.3232 49.4041 2
63.7004 53.2877 2
62.4035 50.6382 2
59.3285 59.5503 2
61.0659 54.2984 2
59.2736 56.9951 2
59.2296 55.1673 2
53.0432 68.9993 3.99198
53.9668 66.0119 3.98604
57.8777 60.8619 3.97499
54.6832 63.2036 3.97988
55.2081 60.602 3.97481
63.1458 48.6475 3.9681
61.7169 52.5629 3.96626
60.191 49.9951 3.96883
58.0076 58.2488 3.96827
59.3032 53.9296 3.9671
58.0985 55.7915 3.96372
50.1089 67.8558 3.98718
47.463 66.5782 3.98404
46.0558 69.1566 3.98759
48.1021 68.5782 2
48.803 70.7225 3.99217
50.9494 69.9312 2
51.8506 72.1454 4
54.0858 71.1327 2
56.25 69.9759 0
55.103 7.14074 3.99058
58.3339 6.31992 4
57.0599 8.33706 2
60.3286 7.74926 2
58.9208 9.65659 0.0122102
62.2254 9.30607 0
68.264 48.1061 0.0307372
69.4288 43.9068 0.0302205
66.6992 45.4368 0.0326234
67.5901 41.4959 0.0318585
70.0398 39.657 0.030022
72.4886 37.512 0.0194357
70.1275 37.5213 2
67.8295 39.5113 2
67.2143 43.4673 2
65.4993 41.2037 2
66.0587 47.4141 2
64.5924 44.8374 2
67.9276 37.5216 3.96834
65.7372 39.3668 3.97199
65.1198 43.0171 3.97093
63.6481 40.9198 3.97577
63.9083 46.7041 3.96901
62.6987 44.1988 3.97379
70.0566 35.3919 0.0297849
69.4655 31.1497 0.0299987
67.6506 33.5916 0.0319492
66.7654 29.6245 0.0325275
62.3412 12.6556 0.0148781
62.1964 15.7904 0.0270532
61.8061 18.6934 0.0329957
65.5186 25.7015 0.0326851
64.1016 28.265 0.0303826
62.8268 24.6476 0.0320857
61.1975 21.3537 0.0344024
60.3688 23.7475 0.0312738
59.2451 12.7838 0.023634
56.4037 13.1251 0.0255122
55.8739 10.237 0.0193986
67.8665 35.5478 2
67.2595 31.6238 2
65.6527 33.9308 2
64.6137 30.2003 2
60.774 14.2284 2
60.6051 17.1389 2
60.2039 19.8307 2
63.5011 26.4246 2
62.1671 28.7951 2
59.607 22.2806 2
60.978 25.3577 2
58.8921 24.3489 2
57.9076 14.3417 2
55.309 14.6635 2
54.0377 9.13705 2
54.7861 12.0181 2
65.8278 35.6681 3.97172
65.1348 32.1603 3.97081
64.2001 34.2547 3.97586
62.483 30.651 3.97408
61.5708 27.091 3.97176
60.7265 29.1623 3.97696
59.3068 15.6784 3.97224
59.2235 25.8248 3.97425
59.108 18.3733 3.96537
58.7022 20.8762 3.96333
58.1998 23.1226 3.96656
57.863 24.6984 3.97316
52.112 8.15544 3.98458
53.0574 11.0238 3.97797
56.6711 15.7581 3.97439
53.8068 13.6957 3.97515
54.3687 16.0196 3.97468
55.0712 67.9316 0.0080919
65.3234 49.4044 0.0334588
55.8044 64.9085 0.0154746
59.2179 62.3624 0.0230808
56.3251 62.0829 0.0247586
63.701 53.288 0.0333752
62.4033 50.6384 0.0330708
59.329 59.5488 0.0299322
59.2737 56.9953 0.0366313
61.066 54.2985 0.0341816
59.2298 55.1677 0.0345261
53.0436 68.9994 2
53.9667 66.0126 2
57.877 60.8634 2
54.6828 63.2046 2
55.208 60.6037 2
63.1454 48.6472 2
61.7177 52.5628 2
60.1907 49.9946 2
58.007 58.2503 2
59.3048 53.9294 2
58.0975 55.7909 2
52.0701 66.9987 3.9869
52.9533 64.2157 3.98254
56.6423 59.477 3.97455
53.6791 61.6155 3.97663
[...]
POINT_DATA 3012
SCALARS rho_c_phif_kappa float 4
LOOKUP_TABLE default
1000 0 1.00142 0.260697
1000 0 1.0012 0.260996
1000 0 1.00142 0.260553
1000 0 1.00142 0.260929
1000 0 1.00142 0.26071
1000 0 1.00142 0.260759
1008.44 9.49058e-09 1.0016 0.25999
1000 0 1.0012 0.261027
1000 0 1.0012 0.261006
1000 0 1.0012 0.260908
1000 0 1.00142 0.260437
1008.42 9.32464e-09 1.00171 0.259965
1000 0 1.00141 0.261072
1000 0 1.00141 0.261458
1000 0 1.00142 0.26039
1000 0 1.00141 0.261074
1000 0 1.00142 0.260515
1000 0 1.00142 0.260675
1008.43 9.50927e-09 1.0016 0.260097
1000 0 1.0012 0.261236
1000 0 1.00141 0.261027
1000 0 1.00142 0.260802
1008.4 9.57758e-09 1.00159 0.260436
1008.42 9.52693e-09 1.0016 0.260126
1000 0 1.00142 0.260841
1008.46 9.45358e-09 1.0016 0.259831
1008.69 1.00621e-08 1.00177 0.258914
1000 0 1.0012 0.261112
1000 0 1.00131 0.260824
1000 0 1.00131 0.260704
1000 0 1.0012 0.261181
1008.46 9.34724e-09 1.00171 0.259959
1000 0 1.00142 0.260688
1000 0 1.00142 0.260355
1008.43 9.53992e-09 1.0016 0.260035
1000 0 1.0012 0.261128
1008.41 9.39085e-09 1.0016 0.260105
1008.46 9.28999e-09 1.00172 0.260123
1008.71 1.00821e-08 1.00176 0.258967
1000 0 1.0012 0.261488
1000 0 1.0012 0.261231
1000 0 1.00131 0.261309
1000 0 1.0012 0.261249
1000 0 1.00141 0.261518
1008.35 9.58868e-09 1.0017 0.260524
1000 0 1.0012 0.261476
1008.4 9.6145e-09 1.0016 0.260333
1000 0 1.00141 0.261276
1000 0 1.00142 0.260634
1000 0 1.00142 0.260267
1008.44 9.49058e-09 1.0016 0.260205
1000 0 1.00131 0.261419
1000 0 1.00141 0.261203
1000 0 1.00142 0.260544
1000 0 1.00142 0.260873
1008.28 9.59354e-09 1.00159 0.260368
1008.49 9.47488e-09 1.0016 0.259998
1008.37 9.54319e-09 1.0016 0.260167
1008.69 1.00582e-08 1.00176 0.258817
1000 0 1.0012 0.261271
1000 0 1.00141 0.261084
1008.34 9.57062e-09 1.0016 0.260695
1008.37 9.58636e-09 1.00159 0.26054
1008.41 9.5577e-09 1.00159 0.260278
1008.65 1.00319e-08 1.00176 0.258929
1008.67 1.00501e-08 1.00176 0.2588
1000 0 1.00142 0.260914
1008.5 9.42144e-09 1.0016 0.259723
1008.7 1.00766e-08 1.00177 0.258911
1008.51 9.85331e-09 1.00174 0.257172
1000 0 1.0012 0.260887
1000 0 1.0012 0.261267
1000 0 1.0012 0.260945
1008.42 9.32464e-09 1.00171 0.259951
1000 0 1.0012 0.260975
1000 0 1.0012 0.260831
1008.38 9.55691e-09 1.00171 0.260083
1000 0 1.00131 0.260863
1008.44 9.41202e-09 1.00171 0.260024
1008.49 9.31029e-09 1.00166 0.260123
1008.7 1.00778e-08 1.00176 0.259005
1000 0 1.0012 0.261376
1008.68 9.31231e-09 1.00173 0.260408
1008.43 9.58804e-09 1.00171 0.260234
1008.42 9.47019e-09 1.00171 0.260166
1008.67 1.00414e-08 1.00175 0.258665
1008.52 9.27799e-09 1.00161 0.260235
1008.7 1.00716e-08 1.00176 0.258857
1008.73 1.00955e-08 1.00176 0.259115
1008.54 9.90471e-09 1.00175 0.257804
1000 0 1.0012 0.26154
1000 0 1.0012 0.261494
1000 0 1.0012 0.261145
1000 0 1.0012 0.261242
1000 0 1.0012 0.261249
1000 0 1.00131 0.261372
1008.19 9.60616e-09 1.00165 0.260464
1000 0 1.00131 0.261194
1008.29 9.63179e-09 1.00165 0.260406
1000 0 1.0012 0.261267
1008.32 9.5704e-09 1.0017 0.260539
1008.37 9.60454e-09 1.0016 0.26038
1008.64 1.00204e-08 1.00175 0.258894
1008.42 9.61209e-09 1.0016 0.260221
1008.65 1.00262e-08 1.00175 0.258939
1000 0 1.00141 0.261064
1000 0 1.00141 0.261447
1000 0 1.00142 0.260271
1000 0 1.00142 0.260958
1008.4 9.57758e-09 1.00159 0.260279
1008.42 9.52693e-09 1.0016 0.260206
1008.46 9.45358e-09 1.0016 0.260164
1008.69 1.00621e-08 1.00176 0.258732
1000 0 1.0012 0.261241
1000 0 1.00141 0.261287
1008.19 9.58845e-09 1.00164 0.260494
1008.25 9.60347e-09 1.00159 0.260474
1000 0 1.00131 0.260829
1008.54 9.44326e-09 1.00161 0.259983
1008.32 9.573e-09 1.00159 0.260247
1008.67 1.00289e-08 1.00176 0.258871
1008.7 1.0072e-08 1.00177 0.258789
1008.68 1.00467e-08 1.00176 0.25879
1008.5 9.85368e-09 1.00174 0.257153
1008.3 9.56253e-09 1.0017 0.260615
1008.35 9.58317e-09 1.00159 0.26059
1008.64 1.0023e-08 1.00175 0.258974
1008.65 1.0027e-08 1.00175 0.258943
1008.66 1.00395e-08 1.00176 0.258795
1008.47 9.80952e-09 1.00174 0.257397
1000 0 1.0012 0.261293
1008.49 9.8355e-09 1.00174 0.25712
1008.55 9.39383e-09 1.00172 0.259908
1008.72 1.00942e-08 1.00176 0.258875
1008.52 9.87385e-09 1.00175 0.257289
1008.49 9.82538e-09 1.00174 0.255607
1008.65 9.36806e-09 1.00173 0.260391
1008.72 1.01164e-08 1.00176 0.260415
1000 0 1.0012 0.260972
1000 0 1.0012 0.260885
1008.43 9.53992e-09 1.00171 0.260124
1000 0 1.0012 0.26135
1008.46 9.28999e-09 1.00172 0.259997
1008.41 9.39085e-09 1.00171 0.260017
1008.71 1.00821e-08 1.00176 0.259035
1000 0 1.0012 0.261422
1008.67 9.32071e-09 1.00173 0.260487
1008.35 9.60386e-09 1.00165 0.260208
1008.41 9.48944e-09 1.00166 0.26012
1008.67 1.0038e-08 1.00175 0.258663
1008.53 9.29293e-09 1.00172 0.260103
1008.7 1.00674e-08 1.00176 0.258898
1008.72 1.0092e-08 1.00176 0.259158
1008.54 9.90558e-09 1.00175 0.257733
1008.59 9.28987e-09 1.00172 0.260232
1008.75 9.33477e-09 1.00173 0.260506
1008.73 1.01132e-08 1.00177 0.260574
1008.65 1.00308e-08 1.00175 0.258741
1008.68 1.00564e-08 1.00176 0.258695
1008.49 9.8335e-09 1.00174 0.256931
1008.73 1.01058e-08 1.00177 0.259715
1008.53 9.88176e-09 1.00175 0.257377
1008.56 9.92646e-09 1.00175 0.257954
1008.53 9.87145e-09 1.00175 0.256462
1000 0 1.0012 0.261545
1000 0 1.0012 0.261513
1000 0 1.0012 0.261473
1008.72 9.377e-09 1.00173 0.260503
1000 0 1.0012 0.261375
1000 0 1.0012 0.261082
1000 0 1.0012 0.261197
1008.4 9.6145e-09 1.0017 0.260491
1008.35 9.58868e-09 1.0017 0.260583
1000 0 1.0012 0.261267
1000 0 1.0012 0.261259
1008.3 9.58723e-09 1.0017 0.260554
1008.36 9.62131e-09 1.00165 0.260459
1008.67 1.0017e-08 1.00175 0.258895
1008.31 9.62832e-09 1.00171 0.260364
1008.66 1.0023e-08 1.00175 0.258928
1008.32 9.55752e-09 1.0017 0.260567
1008.64 1.00163e-08 1.00175 0.258854
1008.65 1.00244e-08 1.00175 0.258944
1008.47 9.80044e-09 1.00173 0.257607
1008.65 1.00273e-08 1.00175 0.258857
1008.47 9.80305e-09 1.00173 0.257406
1000 0 1.0012 0.261241
1000 0 1.00141 0.261511
1008.34 9.57062e-09 1.00169 0.260554
1008.37 9.58636e-09 1.00159 0.26038
1000 0 1.0012 0.261039
1008.5 9.42144e-09 1.00161 0.260245
1008.41 9.5577e-09 1.00159 0.260211
1008.65 1.00319e-08 1.00176 0.258807
1008.67 1.00501e-08 1.00176 0.258785
1008.7 1.00766e-08 1.00177 0.258668
1008.51 9.85331e-09 1.00174 0.257131
1008.27 9.57949e-09 1.0017 0.260584
1008.34 9.60001e-09 1.00159 0.260517
1008.67 1.00196e-08 1.00175 0.258942
1008.67 1.00238e-08 1.00176 0.258958
1000 0 1.0012 0.261282
1008.56 9.41156e-09 1.00167 0.260051
1008.71 1.00902e-08 1.00177 0.25889
1008.67 1.00365e-08 1.00176 0.258766
1008.47 9.80972e-09 1.00174 0.257284
1008.52 9.87448e-09 1.00175 0.257252
1008.49 9.83574e-09 1.00174 0.257146
1008.49 9.82566e-09 1.00174 0.255625
1008.65 9.3815e-09 1.00173 0.260289
1008.72 1.01136e-08 1.00176 0.260409
1008.64 1.00188e-08 1.00175 0.258894
1008.65 1.0024e-08 1.00175 0.259005
1008.47 9.8013e-09 1.00174 0.257775
1008.47 9.80335e-09 1.00173 0.257302
1008.48 9.8206e-09 1.00174 0.257123
1008.46 9.79231e-09 1.00173 0.255864
1008.59 9.37231e-09 1.00172 0.260189
1008.48 9.8117e-09 1.00174 0.255467
1008.73 1.01101e-08 1.00176 0.259388
1008.54 9.89778e-09 1.00175 0.257589
1008.5 9.84449e-09 1.00174 0.255822
1008.48 9.82034e-09 1.00174 0.25424
1008.73 1.0113e-08 1.00176 0.26015
1008.72 1.0118e-08 1.00176 0.260798
1008.57 9.94882e-09 1.00176 0.259664
1008.43 9.58804e-09 1.00171 0.260258
1000 0 1.0012 0.261439
1008.68 9.31231e-09 1.00173 0.26057
1008.42 9.47019e-09 1.00171 0.260041
1008.67 1.00414e-08 1.00175 0.258667
1008.52 9.27799e-09 1.00172 0.260247
1008.73 1.00955e-08 1.00176 0.2592
1008.7 1.00716e-08 1.00176 0.258932
1008.54 9.90471e-09 1.00175 0.257671
1008.6 9.30147e-09 1.00172 0.260348
1008.75 9.34216e-09 1.00173 0.260526
1008.73 1.01104e-08 1.00177 0.260622
1008.67 1.00277e-08 1.00175 0.258729
1008.69 1.00528e-08 1.00176 0.258712
1008.49 9.83393e-09 1.00174 0.256953
1008.73 1.01023e-08 1.00177 0.259729
1008.53 9.88244e-09 1.00175 0.257424
1008.56 9.92731e-09 1.00175 0.257966
1008.53 9.87163e-09 1.00175 0.256335
1008.82 9.35894e-09 1.00174 0.260478
1008.73 1.0108e-08 1.00177 0.260267
1008.72 1.01144e-08 1.00177 0.260951
1008.57 9.95966e-09 1.00176 0.259877
1008.48 9.82336e-09 1.00174 0.256987
1008.5 9.8541e-09 1.00174 0.257029
1008.47 9.79081e-09 1.00174 0.254947
1008.57 9.94465e-09 1.00175 0.258775
1008.51 9.84617e-09 1.00174 0.255566
1008.54 9.89632e-09 1.00175 0.256576
1008.52 9.85772e-09 1.00175 0.255386
1008.69 1.01163e-08 1.00176 0.261178
1008.95 9.40684e-09 1.00174 0.260346
1000 0 1.0012 0.261554
1000 0 1.0012 0.261527
1000 0 1.0012 0.261496
1008.79 9.40108e-09 1.00173 0.260541
1000 0 1.0012 0.261439
1008.72 9.38783e-09 1.00173 0.260425
1000 0 1.0012 0.261356
1008.42 9.61209e-09 1.00171 0.260387
1008.37 9.60454e-09 1.0017 0.260565
1008.65 1.00262e-08 1.00175 0.258918
1008.64 1.00204e-08 1.00175 0.258897
1008.32 9.5704e-09 1.0017 0.260582
1000 0 1.0012 0.261268
1008.11 9.57594e-09 1.0017 0.260573
1008.64 1.00131e-08 1.00175 0.258855
1008.64 1.00212e-08 1.00175 0.258941
1008.46 9.8006e-09 1.00173 0.257601
1008.67 1.00242e-08 1.00175 0.25884
1008.47 9.80329e-09 1.00173 0.257405
1008.63 1.00157e-08 1.00175 0.258861
1008.46 9.80336e-09 1.00173 0.257675
1008.47 9.80234e-09 1.00173 0.257536
1008.45 9.77595e-09 1.00173 0.256349
1008.47 9.8082e-09 1.00174 0.257189
1008.46 9.79202e-09 1.00173 0.255962
1008.3 9.56253e-09 1.0017 0.260555
1008.35 9.58317e-09 1.00159 0.260432
1008.64 1.0023e-08 1.00175 0.258906
1008.65 1.0027e-08 1.00176 0.258965
1000 0 1.0012 0.261261
1008.55 9.39383e-09 1.00161 0.260052
1008.72 1.00942e-08 1.00177 0.25889
1008.66 1.00395e-08 1.00176 0.258735
1008.47 9.80952e-09 1.00173 0.257167
1008.49 9.8355e-09 1.00174 0.257173
1008.52 9.87385e-09 1.00175 0.257211
1008.49 9.82538e-09 1.00174 0.255638
1008.65 9.36806e-09 1.00173 0.260198
1008.72 1.01164e-08 1.00176 0.260399
1008.64 1.00155e-08 1.00175 0.258875
1008.64 1.0021e-08 1.00175 0.258975
1008.47 9.80147e-09 1.00174 0.257736
1008.47 9.80362e-09 1.00174 0.257404
1008.6 9.3879e-09 1.00172 0.260096
1008.72 1.01061e-08 1.00176 0.259333
1008.54 9.89913e-09 1.00175 0.25765
1008.48 9.8208e-09 1.00174 0.257171
1008.46 9.79229e-09 1.00173 0.255739
1008.5 9.84496e-09 1.00174 0.255675
1008.48 9.81185e-09 1.00174 0.255465
1008.48 9.8205e-09 1.00174 0.254139
1008.72 1.01101e-08 1.00176 0.26019
1008.57 9.94931e-09 1.00176 0.259735
1008.71 1.0115e-08 1.00176 0.260733
1008.47 9.80296e-09 1.00174 0.257772
1008.47 9.8028e-09 1.00174 0.257606
1008.45 9.78083e-09 1.00173 0.256666
1008.45 9.78445e-09 1.00173 0.255792
1008.46 9.8006e-09 1.00173 0.255426
1008.46 9.7866e-09 1.00173 0.254129
1008.73 1.01133e-08 1.00176 0.259867
1008.47 9.80377e-09 1.00174 0.253637
1008.56 9.92451e-09 1.00175 0.258436
1008.52 9.87098e-09 1.00175 0.255846
1008.5 9.83009e-09 1.00174 0.25415
1008.48 9.81832e-09 1.00174 0.252469
1008.71 1.01176e-08 1.00176 0.261104
1008.57 9.94407e-09 1.00175 0.259712
1008.57 9.9519e-09 1.00176 0.259911
1008.58 9.92583e-09 1.00176 0.259159
1008.65 1.00308e-08 1.00175 0.25872
1008.75 9.33477e-09 1.00173 0.260531
1008.59 9.28987e-09 1.00172 0.260481
1008.73 1.01132e-08 1.00177 0.260676
1008.68 1.00564e-08 1.00176 0.258729
1008.49 9.8335e-09 1.00174 0.256972
1008.73 1.01058e-08 1.00177 0.259735
1008.56 9.92646e-09 1.00175 0.257952
1008.53 9.88176e-09 1.00175 0.257477
1008.53 9.87145e-09 1.00175 0.256207
1008.82 9.3656e-09 1.00174 0.260468
1008.73 1.01051e-08 1.00177 0.260271
1008.72 1.0112e-08 1.00177 0.261043
1008.57 9.95983e-09 1.00176 0.259841
1008.47 9.82365e-09 1.00174 0.257
1008.5 9.85475e-09 1.00174 0.257052
1008.47 9.79085e-09 1.00174 0.254947
1008.57 9.94527e-09 1.00175 0.258796
1008.51 9.84656e-09 1.00174 0.255682
1008.55 9.89655e-09 1.00175 0.256444
1008.52 9.85797e-09 1.00175 0.255433
1008.89 9.38067e-09 1.00174 0.260413
1008.71 1.01141e-08 1.00176 0.261231
1008.57 9.95295e-09 1.00176 0.259564
1008.57 9.96067e-09 1.00176 0.260378
1008.59 9.93844e-09 1.00176 0.258951
1008.46 9.75346e-09 1.00173 0.255097
1008.49 9.83291e-09 1.00174 0.254953
1008.48 9.82651e-09 1.00174 0.252931
1008.57 9.92526e-09 1.00175 0.257237
1008.5 9.83435e-09 1.00174 0.253488
1008.53 9.85454e-09 1.00175 0.254965
1008.7 1.01147e-08 1.00176 0.261235
1008.56 9.95178e-09 1.00176 0.26151
1008.68 1.01178e-08 1.00176 0.261145
1008.69 1.01148e-08 1.00176 0.261187
1009.01 9.43323e-09 1.00163 0.260627
1008.95 9.41324e-09 1.00168 0.260568
1000 0 1.00143 0.260926
1000 0 1.0012 0.261544
1000 0 1.0012 0.261516
1008.87 9.43443e-09 1.00174 0.260558
1000 0 1.0012 0.261483
1008.79 9.41014e-09 1.00173 0.260502
1000 0 1.0012 0.261428
1008.72 9.377e-09 1.00173 0.260352
1000 0 1.0012 0.261335
1008.65 1.00273e-08 1.00175 0.258825
1008.65 1.00244e-08 1.00175 0.258938
1008.47 9.80305e-09 1.00173 0.2574
1008.47 9.80044e-09 1.00173 0.257595
1008.64 1.00163e-08 1.00175 0.258855
1008.32 9.55752e-09 1.0017 0.260553
1008.67 1.00121e-08 1.00175 0.258859
1008.47 9.80338e-09 1.00173 0.25767
1008.47 9.80253e-09 1.00173 0.257523
1008.45 9.77571e-09 1.00173 0.256246
1008.47 9.80846e-09 1.00174 0.257183
1008.46 9.79195e-09 1.00173 0.255983
1008.47 9.80713e-09 1.00173 0.257711
1008.45 9.75384e-09 1.00173 0.256621
1008.45 9.78064e-09 1.00173 0.256016
1008.45 9.76732e-09 1.00173 0.255332
1008.46 9.78516e-09 1.00173 0.255618
1008.45 9.75933e-09 1.00173 0.253892
1008.64 1.00188e-08 1.00175 0.258861
1008.65 1.0024e-08 1.00175 0.258949
1008.47 9.8013e-09 1.00174 0.257695
1008.47 9.80335e-09 1.00174 0.257504
1008.59 9.37231e-09 1.00172 0.260009
1008.73 1.01101e-08 1.00176 0.259286
1008.54 9.89778e-09 1.00175 0.257721
1008.48 9.8206e-09 1.00174 0.257223
1008.46 9.79231e-09 1.00173 0.255614
1008.48 9.8117e-09 1.00174 0.255464
1008.5 9.84449e-09 1.00174 0.255544
1008.48 9.82034e-09 1.00174 0.254038
1008.73 1.0113e-08 1.00176 0.260226
1008.57 9.94882e-09 1.00175 0.25979
1008.72 1.0118e-08 1.00176 0.260681
1008.47 9.80304e-09 1.00173 0.257743
1008.47 9.80302e-09 1.00174 0.257561
1008.45 9.78058e-09 1.00173 0.256608
1008.45 9.78426e-09 1.00173 0.255852
1008.72 1.01094e-08 1.00176 0.25988
1008.56 9.92452e-09 1.00175 0.258434
1008.53 9.87241e-09 1.00175 0.255962
1008.47 9.80057e-09 1.00173 0.255518
1008.46 9.7863e-09 1.00173 0.254026
1008.5 9.83033e-09 1.00174 0.254023
1008.47 9.80371e-09 1.00174 0.25366
1008.48 9.81822e-09 1.00174 0.25241
1008.57 9.94492e-09 1.00175 0.259693
1008.58 9.92615e-09 1.00176 0.259145
1008.7 1.01152e-08 1.00176 0.261049
1008.57 9.9518e-09 1.00176 0.259983
1008.45 9.75477e-09 1.00173 0.256737
1008.45 9.77893e-09 1.00173 0.25634
1008.45 9.78285e-09 1.00173 0.255663
1008.45 9.78837e-09 1.00173 0.253666
1008.46 9.79089e-09 1.00173 0.253834
1008.45 9.79551e-09 1.00173 0.253227
1008.57 9.93834e-09 1.00175 0.259327
1008.47 9.81719e-09 1.00173 0.251756
1008.55 9.90387e-09 1.00175 0.256825
1008.52 9.83897e-09 1.00175 0.253996
1008.49 9.84552e-09 1.00174 0.252621
1008.47 9.81797e-09 1.00174 0.251763
1008.69 1.01172e-08 1.00176 0.261227
1008.57 9.95211e-09 1.00176 0.260354
1008.57 9.92155e-09 1.00175 0.2591
1008.59 9.93522e-09 1.00176 0.259139
1008.58 9.92797e-09 1.00176 0.258832
1008.82 9.35894e-09 1.00173 0.260442
1008.48 9.82336e-09 1.00174 0.257016
1008.72 1.01144e-08 1.00176 0.261155
1008.73 1.0108e-08 1.00177 0.260258
1008.57 9.95966e-09 1.00176 0.259807
1008.5 9.8541e-09 1.00174 0.257069
1008.47 9.79081e-09 1.00174 0.254948
1008.57 9.94465e-09 1.00175 0.258837
1008.54 9.89632e-09 1.00175 0.256272
1008.51 9.84617e-09 1.00174 0.255791
1008.52 9.85772e-09 1.00175 0.255482
1008.88 9.38714e-09 1.00174 0.260388
1008.71 1.01123e-08 1.00176 0.261294
1008.57 9.95386e-09 1.00176 0.259575
1008.57 9.96057e-09 1.00176 0.260386
1008.59 9.93857e-09 1.00176 0.258918
1008.46 9.75403e-09 1.00173 0.255065
1008.49 9.83296e-09 1.00174 0.254963
1008.48 9.82703e-09 1.00174 0.252862
1008.57 9.92491e-09 1.00175 0.257284
1008.5 9.83395e-09 1.00174 0.253615
1008.53 9.85496e-09 1.00175 0.25506
1008.71 1.0114e-08 1.00176 0.26128
1008.57 9.95707e-09 1.00176 0.260974
1008.58 9.93444e-09 1.00176 0.258303
1008.59 9.94736e-09 1.00176 0.259375
1008.59 9.92946e-09 1.00176 0.258539
1008.47 9.88944e-09 1.00173 0.253833
1008.47 9.71858e-09 1.00174 0.252331
1008.45 9.86385e-09 1.00173 0.250738
1008.56 9.87444e-09 1.00175 0.255587
1008.5 9.8282e-09 1.00174 0.252917
1008.7 1.01133e-08 1.00176 0.261247
1008.56 9.95314e-09 1.00176 0.261473
1008.56 9.95192e-09 1.00176 0.261504
1008.59 9.93969e-09 1.00176 0.260929
1008.56 9.95021e-09 1.00176 0.261489
1008.67 1.01195e-08 1.00176 0.261139
1008.68 1.01164e-08 1.00176 0.261147
1009.06 9.46781e-09 1.00163 0.260604
1008.69 1.01163e-08 1.00176 0.261195
1009.01 9.43912e-09 1.00163 0.260725
1000 0 1.00144 0.26092
1008.95 9.40684e-09 1.00163 0.26071
1000 0 1.00132 0.261084
1000 0 1.0012 0.261535
1008.95 9.46889e-09 1.00174 0.260537
1008.87 9.44178e-09 1.00174 0.260533
1000 0 1.0012 0.261504
1000 0 1.0012 0.261488
1008.79 9.40108e-09 1.00173 0.260455
1000 0 1.0012 0.261407
1008.47 9.8082e-09 1.00174 0.257176
1008.47 9.80234e-09 1.00173 0.257516
1008.46 9.79202e-09 1.00173 0.256007
1008.45 9.77595e-09 1.00173 0.256141
1008.46 9.80336e-09 1.00173 0.257665
1008.63 1.00157e-08 1.00175 0.258854
1008.46 9.80741e-09 1.00173 0.257712
1008.44 9.75395e-09 1.00173 0.256673
1008.45 9.78049e-09 1.00173 0.256018
1008.45 9.76717e-09 1.00173 0.255185
1008.46 9.7851e-09 1.00173 0.255599
1008.45 9.75909e-09 1.00173 0.253916
1008.44 9.73757e-09 1.00173 0.256892
1008.45 9.76928e-09 1.00173 0.255874
1008.45 9.78831e-09 1.00173 0.254282
1008.47 1.00252e-08 1.00173 0.254385
1008.46 9.79734e-09 1.00173 0.254394
1008.48 9.94148e-09 1.00173 0.252543
1008.47 9.80296e-09 1.00173 0.257713
1008.47 9.8028e-09 1.00174 0.257514
1008.45 9.78083e-09 1.00173 0.256556
1008.45 9.78445e-09 1.00173 0.255919
1008.73 1.01133e-08 1.00176 0.259884
1008.56 9.92451e-09 1.00175 0.258424
1008.52 9.87098e-09 1.00175 0.256074
1008.46 9.8006e-09 1.00174 0.255607
1008.46 9.7866e-09 1.00173 0.253926
1008.47 9.80377e-09 1.00174 0.253684
1008.5 9.83009e-09 1.00174 0.253867
1008.48 9.81832e-09 1.00174 0.252354
1008.57 9.94407e-09 1.00175 0.259683
1008.58 9.92583e-09 1.00176 0.259139
1008.71 1.01176e-08 1.00176 0.260994
1008.57 9.9519e-09 1.00176 0.260043
1008.45 9.75482e-09 1.00173 0.256741
1008.45 9.77903e-09 1.00173 0.256327
1008.45 9.78302e-09 1.00173 0.255653
1008.45 9.78876e-09 1.00173 0.253829
1008.57 9.93878e-09 1.00175 0.259293
1008.55 9.90391e-09 1.00175 0.256973
1008.52 9.84005e-09 1.00175 0.253905
1008.46 9.79121e-09 1.00173 0.253953
1008.45 9.79614e-09 1.00173 0.253132
1008.49 9.84558e-09 1.00174 0.252579
1008.47 9.81766e-09 1.00173 0.251766
1008.47 9.81824e-09 1.00174 0.251711
1008.57 9.92129e-09 1.00175 0.259079
1008.58 9.92767e-09 1.00176 0.258791
1008.59 9.9354e-09 1.00176 0.259143
1008.69 1.01153e-08 1.00176 0.261176
1008.57 9.95215e-09 1.00176 0.2604
1008.46 9.8266e-09 1.00173 0.255793
1008.45 9.75985e-09 1.00173 0.254803
1008.44 9.76064e-09 1.00173 0.252374
1008.45 9.81009e-09 1.00173 0.252362
1008.57 9.9216e-09 1.00175 0.258316
1008.45 9.80078e-09 1.00173 0.24986
1008.54 9.86177e-09 1.00175 0.255246
1008.51 9.86638e-09 1.00174 0.251937
1008.49 9.92834e-09 1.00174 0.251253
1008.69 1.01187e-08 1.00176 0.261233
1008.56 9.95369e-09 1.00176 0.260728
1008.59 9.93483e-09 1.00176 0.259628
1008.57 9.91459e-09 1.00175 0.258539
1008.59 9.93364e-09 1.00176 0.258576
1008.57 9.92282e-09 1.00175 0.258272
1008.89 9.38067e-09 1.00174 0.26036
1008.71 1.01141e-08 1.00176 0.26136
1008.46 9.75346e-09 1.00173 0.255031
1008.57 9.96067e-09 1.00176 0.260392
1008.57 9.95295e-09 1.00176 0.259583
1008.59 9.93844e-09 1.00176 0.258882
1008.49 9.83291e-09 1.00174 0.254975
1008.48 9.82651e-09 1.00173 0.252803
1008.57 9.92526e-09 1.00175 0.257327
1008.53 9.85454e-09 1.00175 0.255135
1008.5 9.83435e-09 1.00174 0.253727
1008.71 1.01124e-08 1.00176 0.261306
1008.57 9.95697e-09 1.00176 0.261015
1008.58 9.9347e-09 1.00176 0.258346
1008.59 9.94696e-09 1.00176 0.25939
1008.59 9.92988e-09 1.00176 0.258441
1008.47 9.88587e-09 1.00173 0.253778
1008.47 9.72048e-09 1.00174 0.252376
1008.45 9.86044e-09 1.00173 0.250666
1008.56 9.87525e-09 1.00175 0.255531
1008.5 9.83088e-09 1.00174 0.252913
1008.57 9.95478e-09 1.00176 0.261316