# vtk DataFile Version 2.0
Wound Healing Simulation
ASCII
DATASET UNSTRUCTURED_GRID
POINTS 3012 float
69.9759 18.75 4
67.2507 60.3285 4
69.976 18.75 2
73.0099 25.446 4
71.1327 20.9142 4
68.6801 16.6661 4
67.8255 19.9261 3.98254
67.2507 60.3286 2
71.1327 54.0858 4
68.6801 58.3339 4
65.6939 62.2254 4
65.312 59.0011 3.98159
74.6784 42.3946 4
73.7221 47.2057 4
69.9759 18.75 0
73.0099 25.446 2
68.6801 16.6661 2
71.1327 20.9142 2
67.826 19.929 2
74.6792 32.6053 4
73.7222 27.7943 4
72.1454 23.1494 4
70.6141 26.2209 3.98211
68.8857 21.958 3.98295
67.2507 14.6715 4
66.6368 17.9721 3.98142
65.7963 21.0257 3.9731
67.2507 60.3285 0
71.1327 54.0858 2
68.6801 58.3339 2
65.694 62.2255 2
65.3131 58.9976 2
72.1454 51.8506 4
69.9759 56.25 4
68.8363 53.113 3.98199
64.0165 64.0165 4
66.6105 57.1336 3.98195
63.8856 60.766 3.98359
63.4991 57.7697 3.97316
60.3285 67.2507 4
74.6792 42.3947 2
73.7222 47.2057 2
74.9194 39.9526 4
74.2788 44.8158 4
72.1682 42.0855 3.98113
73.0099 49.554 4
71.2492 46.598 3.98106
73.0099 25.446 0
71.1327 20.9142 0
68.6801 16.6661 0
67.8255 19.9261 0.0174618
74.6792 32.6053 2
73.7222 27.7943 2
67.2508 14.6715 2
72.1455 23.1494 2
70.6141 26.2213 2
66.6376 17.9757 2
68.886 21.96 2
65.7957 21.0263 2
74.9197 35.0474 4
74.2794 30.1841 4
72.1848 32.9432 3.98158
71.2781 28.4313 3.9815
69.8155 24.0595 3.98273
68.3462 26.9515 3.97156
66.7618 22.9334 3.97234
65.694 12.7746 4
65.3233 16.1037 3.98175
64.7123 19.1964 3.97327
63.8842 22.0376 3.96883
71.1327 54.0858 0
65.6939 62.2254 0
68.6801 58.3339 0
65.312 59.0011 0.0184088
72.1455 51.8506 2
69.9759 56.25 2
68.8365 53.1111 2
64.0165 64.0165 2
66.6113 57.1302 2
63.8872 60.7632 2
63.4986 57.7697 2
62.2254 65.694 4
58.8947 65.4142 3.99099
69.7689 50.9888 3.98183
67.7836 55.1672 3.98197
66.6486 52.2086 3.97137
62.3361 62.4276 3.98676
64.6597 56.0304 3.97326
62.2018 59.4023 3.97442
61.819 56.6761 3.9686
58.3339 68.6801 4
60.3285 67.2508 2
73.7221 47.2057 0
74.6784 42.3946 0
74.9197 39.9526 2
74.2794 44.8159 2
72.1678 42.0855 2
73.0099 49.554 2
71.2491 46.5978 2
75 37.5 4
72.4054 39.8022 3.98153
71.7825 44.3528 3.98119
69.8033 41.7892 3.97092
70.5751 48.8135 3.9814
68.9115 46.0142 3.97062
74.6792 32.6053 0
73.7222 27.7943 0
67.2507 14.6715 0
72.1454 23.1494 0
70.6141 26.2209 0.0178898
68.8857 21.958 0.0170461
66.6368 17.9721 0.0185802
65.7963 21.0257 0.0269037
74.9197 35.0474 2
74.2794 30.1841 2
72.1844 32.9435 2
71.2781 28.4316 2
65.694 12.7745 2
65.3246 16.1072 2
69.8156 24.0606 2
68.3462 26.9518 2
64.7117 19.1968 2
66.7614 22.934 2
63.8835 22.0377 2
72.4132 35.2241 3.98161
71.8039 30.6762 3.9816
69.8394 33.2682 3.97145
68.9654 29.0382 3.9713
67.6106 24.9121 3.97189
66.1922 27.6355 3.96827
64.0165 10.9835 4
64.754 23.8316 3.96868
63.8901 14.3272 3.98465
63.5115 17.4497 3.9734
62.9028 20.3243 3.96862
62.0841 22.9487 3.96743
60.684 11.0979 3.9877
57.612 11.4496 3.97994
72.1454 51.8506 0
69.9759 56.25 0
68.8363 53.113 0.0180065
64.0165 64.0165 0
63.8856 60.766 0.0164064
66.6105 57.1336 0.0180511
63.4991 57.7697 0.0268398
62.2255 65.694 2
58.8957 65.4138 2
69.7689 50.9879 2
67.784 55.1643 2
66.6481 52.208 2
62.3378 62.4257 2
64.6592 56.0302 2
62.2014 59.4029 2
61.8184 56.6766 2
60.6688 63.977 3.98892
57.0257 66.7348 3.99179
57.5579 63.691 3.9826
67.5067 50.1761 3.97077
65.7009 54.1725 3.97204
64.5349 51.383 3.96755
60.7726 60.9363 3.97805
62.8165 55.064 3.96871
60.6547 58.1534 3.96825
60.3209 55.7758 3.96937
56.25 69.9759 4
58.3339 68.6801 2
60.3285 67.2507 0
58.9212 9.65618 3.98888
62.2254 9.30607 4
73.0099 49.554 0
74.2788 44.8158 0
71.2492 46.598 0.0189355
72.1682 42.0855 0.0188673
74.9194 39.9526 0
75 37.5 2
72.4054 39.8023 2
71.7824 44.3526 2
69.803 41.7889 2
70.575 48.8132 2
68.9114 46.0138 2
72.4888 37.512 3.98129
70.0406 39.657 3.97103
69.4296 43.907 3.97074
67.5954 41.4965 3.96838
68.2651 48.1065 3.97062
66.7074 45.4383 3.96777
74.9197 35.0474 0
74.2794 30.1841 0
72.1848 32.9432 0.0184199
71.2781 28.4313 0.0185045
65.694 12.7746 0
65.3233 16.1037 0.0182493
69.8155 24.0595 0.0172697
68.3462 26.9515 0.0284379
66.7618 22.9334 0.0276633
64.7123 19.1964 0.0267311
63.8842 22.0376 0.0311693
72.4132 35.2241 2
71.8039 30.6766 2
69.8391 33.2686 2
68.9654 29.0385 2
64.0165 10.9835 2
63.8917 14.33 2
63.5111 17.4497 2
67.6104 24.9125 2
66.1922 27.6356 2
62.9021 20.3243 2
64.7535 23.8318 2
62.0833 22.9488 2
60.6856 11.0997 2
57.6125 11.4486 2
70.0573 35.3917 3.97125
69.4664 31.1494 3.97121
67.6537 33.591 3.96868
66.7699 29.6235 3.96821
65.5217 25.7004 3.96851
64.1261 28.2601 3.96928
62.3417 12.6551 3.9866
62.8453 24.6423 3.96819
62.1983 15.7871 3.97633
61.8079 18.6912 3.96761
61.2096 21.3484 3.96625
60.3982 23.7388 3.96852
59.2459 12.7813 3.97856
55.8742 10.2353 3.98222
56.4042 13.1198 3.97554
69.7689 50.9888 0.0181684
62.2254 65.694 0
58.8947 65.4142 0.00901461
67.7836 55.1672 0.0180326
66.6486 52.2086 0.0286255
62.3361 62.4276 0.0132368
62.2018 59.4023 0.025577
64.6597 56.0304 0.0267397
61.819 56.6761 0.0314029
60.6702 63.9759 2
57.0264 66.7346 2
57.558 63.6924 2
67.5064 50.1756 2
65.7003 54.1719 2
64.5344 51.3829 2
60.7726 60.9376 2
62.816 55.0642 2
60.6543 58.1542 2
60.3205 55.7759 2
55.0714 67.9318 3.99222
59.2189 62.3648 3.97952
55.8048 64.9096 3.98574
56.3259 62.0871 3.97773
65.3292 49.4063 3.9674
63.7027 53.2894 3.96795
62.4234 50.6441 3.96713
59.3313 59.5529 3.9732
61.07 54.3011 3.96821
59.282 56.9982 3.96572
59.232 55.1705 3.96754
48.1028 68.5781 3.98793
50.9491 69.9314 3.99244
54.0858 71.1327 4
56.25 69.976 2
58.3339 68.6801 0
57.0586 8.33609 3.9899
60.3285 7.74928 4
58.9227 9.65725 2
62.2255 9.30602 2
70.5751 48.8135 0.0185972
71.7825 44.3528 0.0188075
68.9115 46.0142 0.029382
69.8033 41.7892 0.0290776
72.4054 39.8022 0.0184667
75 37.5 0
72.4884 37.5121 2
70.0406 39.6569 2
69.4295 43.9067 2
67.595 41.4963 2
68.2651 48.1061 2
66.7073 45.4381 2
70.1287 37.5213 3.97117
67.8328 39.5116 3.96858
67.2214 43.4686 3.968
65.5243 41.2062 3.97053
66.0663 47.4162 3.96762
64.6228 44.8422 3.96932
72.4132 35.2241 0.0183939
71.8039 30.6762 0.0184003
69.8394 33.2682 0.028548
68.9654 29.0382 0.0286979
64.0165 10.9835 0
63.8901 14.3272 0.0153485
63.5115 17.4497 0.0266003
67.6106 24.9121 0.0281116
66.1922 27.6355 0.0317256
64.754 23.8316 0.0313151
62.9028 20.3243 0.0313817
62.0841 22.9487 0.0325719
60.684 11.0979 0.0123038
57.612 11.4496 0.0200631
70.0573 35.3919 2
69.4664 31.1497 2
67.6534 33.5912 2
66.7699 29.6236 2
62.3434 12.6574 2
62.1979 15.7867 2
61.8075 18.6908 2
65.5214 25.7005 2
64.1255 28.2603 2
61.2088 21.3483 2
62.8447 24.6424 2
60.398 23.7391 2
59.2462 12.7809 2
56.4043 13.1186 2
55.8746 10.2342 2
67.8689 35.5474 3.96871
67.2632 31.6228 3.96842
65.6743 33.9287 3.97084
64.6393 30.196 3.96953
63.5222 26.4191 3.96884
62.2086 28.7872 3.97259
60.7751 14.2256 3.97845
61.0119 25.3487 3.97012
60.6088 17.1341 3.97127
60.2092 19.8263 3.9653
59.632 22.2713 3.96565
58.9318 24.3368 3.97061
54.0375 9.13735 3.98381
57.9091 14.3379 3.97692
54.7862 12.0174 3.97759
55.3103 14.6572 3.97485
67.5067 50.1761 0.0292322
57.0257 66.7348 0.00821219
60.6688 63.977 0.0110839
57.5579 63.691 0.0174016
65.7009 54.1725 0.0279636
64.5349 51.383 0.0324502
60.7726 60.9363 0.0219473
60.6547 58.1534 0.0317491
62.8165 55.064 0.0312854
60.3209 55.7758 0.0306342
55.0719 67.9317 2
59.219 62.3661 2
55.8048 64.9106 2
56.3258 62.0886 2
65.3289 49.4062 2
63.7019 53.2894 2
62.4237 50.644 2
59.3311 59.5544 2
61.0696 54.3011 2
59.2818 56.9981 2
59.2318 55.1703 2
53.0433 68.9996 3.99233
53.9673 66.0126 3.98704
57.8793 60.8665 3.97659
54.6837 63.2058 3.98164
55.2094 60.6098 3.97628
63.1692 48.6531 3.96786
61.7302 52.5676 3.96691
60.2249 50.0029 3.96873
58.0127 58.2536 3.96952
59.3154 53.9341 3.96713
58.112 55.7952 3.96564
50.1095 67.8562 3.98778
47.4633 66.5796 3.98486
46.0563 69.1573 3.98802
48.1027 68.5787 2
48.8032 70.7227 3.99254
50.9495 69.9315 2
51.8506 72.1454 4
54.0858 71.1327 2
56.25 69.9759 0
55.1033 7.14054 3.99092
58.3339 6.31992 4
57.0599 8.3366 2
60.3286 7.74926 2
58.9212 9.65618 0.0111233
62.2254 9.30607 0
68.2651 48.1065 0.029382
69.4296 43.907 0.0292616
66.7074 45.4383 0.0322301
67.5954 41.4965 0.0316246
70.0406 39.657 0.0289739
72.4888 37.512 0.0187097
70.1284 37.5213 2
67.8327 39.5115 2
67.2213 43.4684 2
65.5236 41.206 2
66.0662 47.4161 2
64.6221 44.842 2
67.9291 37.5216 3.96867
65.7574 39.3679 3.97081
65.1472 43.0204 3.97002
63.6834 40.9233 3.97373
63.9348 46.7093 3.96856
62.742 44.2055 3.97303
70.0573 35.3917 0.0287545
69.4664 31.1494 0.028794
67.6537 33.591 0.0313168
66.7699 29.6235 0.0317923
62.3417 12.6551 0.0134
62.1983 15.7871 0.0236693
61.8079 18.6912 0.0323856
65.5217 25.7004 0.0314925
64.1261 28.2601 0.0307198
62.8453 24.6423 0.0318146
61.2096 21.3484 0.0337459
60.3982 23.7388 0.0314848
59.2459 12.7813 0.0214428
56.4042 13.1198 0.0244645
55.8742 10.2353 0.0177769
67.8688 35.5475 2
67.2631 31.6229 2
65.6739 33.9288 2
64.6388 30.1961 2
60.775 14.2253 2
60.6083 17.1332 2
60.2093 19.8261 2
63.5218 26.4192 2
62.2074 28.7875 2
59.6338 22.2715 2
61.0115 25.349 2
58.9309 24.3376 2
57.9087 14.3371 2
55.31 14.6569 2
54.0378 9.13636 2
54.7864 12.0158 2
65.8483 35.6671 3.97077
65.1578 32.1573 3.97008
64.2304 34.2518 3.97387
62.526 30.6442 3.97331
61.6052 27.0831 3.97108
60.7743 29.153 3.9761
59.3089 15.6741 3.97557
59.2674 25.8136 3.97363
59.1137 18.3669 3.96821
58.7166 20.8681 3.96368
58.2371 23.1106 3.96632
57.9046 24.6855 3.97267
52.1123 8.1549 3.98527
53.058 11.0216 3.97968
56.6735 15.7518 3.97626
53.808 13.6905 3.9758
54.3718 16.0129 3.97628
55.0714 67.9318 0.007781
65.3292 49.4063 0.0325955
55.8048 64.9096 0.0142582
59.2189 62.3648 0.02048
56.3259 62.0871 0.0222669
63.7027 53.2894 0.0320484
62.4234 50.6441 0.0328679
59.3313 59.5529 0.0267992
59.282 56.9982 0.0342809
61.07 54.3011 0.0317936
59.232 55.1705 0.0324613
53.0437 68.9996 2
53.9672 66.0133 2
57.8789 60.8677 2
54.6835 63.2069 2
55.2093 60.6113 2
63.1689 48.653 2
61.7312 52.5677 2
60.2245 50.0025 2
58.0123 58.2551 2
59.3158 53.9339 2
58.1112 55.7946 2
52.0707 66.9993 3.98755
52.9536 64.2175 3.98363
56.6449 59.4827 3.97479
53.6801 61.619 3.97856
[...]
POINT_DATA 3012
SCALARS rho_c_phif_kappa float 4
LOOKUP_TABLE default
1000 0 1.00127 0.258377
1000 0 1.00109 0.258666
1000 0 1.00128 0.2582
1000 0 1.00127 0.258568
1000 0 1.00127 0.258373
1000 0 1.00128 0.258445
1007.85 8.86067e-09 1.00142 0.25778
1000 0 1.00109 0.258693
1000 0 1.0011 0.258591
1000 0 1.00109 0.25854
1000 0 1.00127 0.258105
1007.83 8.71255e-09 1.00152 0.257729
1000 0 1.00127 0.258671
1000 0 1.00127 0.258964
1000 0 1.00128 0.258007
1000 0 1.00127 0.258647
1000 0 1.00128 0.258174
1000 0 1.00127 0.258293
1007.85 8.877e-09 1.00142 0.257897
1000 0 1.00109 0.25885
1000 0 1.00127 0.258669
1000 0 1.00127 0.258448
1007.81 8.93733e-09 1.00142 0.258139
1007.83 8.89304e-09 1.00142 0.257887
1000 0 1.00128 0.258503
1007.87 8.82779e-09 1.00143 0.257645
1007.94 9.2211e-09 1.00156 0.256981
1000 0 1.00109 0.258768
1000 0 1.00118 0.258436
1000 0 1.00118 0.258351
1000 0 1.00109 0.258818
1007.86 8.73139e-09 1.00152 0.257733
1000 0 1.00127 0.25831
1000 0 1.00128 0.258021
1007.84 8.90429e-09 1.00143 0.257837
1000 0 1.00109 0.258709
1007.82 8.77191e-09 1.00143 0.257897
1007.87 8.68079e-09 1.00153 0.257895
1007.97 9.24782e-09 1.00156 0.257075
1000 0 1.00109 0.259058
1000 0 1.00109 0.258849
1000 0 1.00118 0.258871
1000 0 1.00109 0.258864
1000 0 1.00127 0.259027
1007.76 8.9467e-09 1.00151 0.258242
1000 0 1.00109 0.259005
1007.81 8.96998e-09 1.00143 0.258091
1000 0 1.00127 0.258785
1000 0 1.00128 0.258207
1000 0 1.00128 0.257908
1007.85 8.86067e-09 1.00142 0.258016
1000 0 1.00118 0.259003
1000 0 1.00127 0.258779
1000 0 1.00128 0.258195
1000 0 1.00127 0.258461
1007.72 8.95084e-09 1.00142 0.258103
1007.9 8.84619e-09 1.00143 0.257816
1007.8 8.90712e-09 1.00142 0.257948
1007.94 9.2174e-09 1.00156 0.256891
1000 0 1.00109 0.258883
1000 0 1.00127 0.258723
1007.75 8.9306e-09 1.00142 0.25837
1007.79 8.94495e-09 1.00142 0.258233
1007.82 8.92006e-09 1.00142 0.258005
1007.91 9.1869e-09 1.00156 0.256911
1007.93 9.2076e-09 1.00156 0.25686
1000 0 1.00128 0.258509
1007.91 8.79896e-09 1.00143 0.25757
1007.96 9.23719e-09 1.00156 0.257
1007.77 9.01726e-09 1.00154 0.255524
1000 0 1.00109 0.25854
1000 0 1.00109 0.258862
1000 0 1.00109 0.258629
1007.83 8.71255e-09 1.00152 0.257741
1000 0 1.0011 0.258603
1000 0 1.00109 0.258504
1007.8 8.919e-09 1.00152 0.257855
1000 0 1.00118 0.258458
1007.85 8.7901e-09 1.00152 0.257797
1007.89 8.69672e-09 1.00148 0.257916
1007.96 9.24371e-09 1.00156 0.257114
1000 0 1.00109 0.258973
1008.06 8.69716e-09 1.00154 0.258106
1007.84 8.94688e-09 1.00152 0.258004
1007.83 8.84251e-09 1.00152 0.25795
1007.93 9.19819e-09 1.00155 0.256724
1007.92 8.66829e-09 1.00144 0.258026
1007.96 9.23511e-09 1.00156 0.256953
1007.98 9.25988e-09 1.00156 0.257233
1007.81 9.06465e-09 1.00155 0.256137
1000 0 1.00109 0.259089
1000 0 1.00109 0.259048
1000 0 1.00109 0.25876
1000 0 1.00109 0.258861
1000 0 1.00109 0.258866
1000 0 1.00118 0.258937
1007.64 8.96183e-09 1.00147 0.258184
1000 0 1.00118 0.25876
1007.71 8.98481e-09 1.00147 0.258138
1000 0 1.00109 0.258883
1007.73 8.92987e-09 1.00151 0.258228
1007.78 8.96105e-09 1.00143 0.258127
1007.9 9.17501e-09 1.00155 0.25683
1007.83 8.9679e-09 1.00143 0.257976
1007.91 9.18038e-09 1.00155 0.256919
1000 0 1.00127 0.258661
1000 0 1.00127 0.258949
1000 0 1.00128 0.257914
1000 0 1.00127 0.258487
1007.81 8.93733e-09 1.00142 0.258044
1007.83 8.89304e-09 1.00142 0.258007
1007.87 8.82779e-09 1.00143 0.257984
1007.94 9.2211e-09 1.00156 0.25681
1000 0 1.00109 0.258855
1000 0 1.00127 0.258859
1007.65 8.94609e-09 1.00146 0.258199
1007.68 8.95952e-09 1.00142 0.258194
1000 0 1.00118 0.258462
1007.93 8.81625e-09 1.00143 0.257821
1007.75 8.93313e-09 1.00142 0.258003
1007.93 9.18404e-09 1.00155 0.256857
1007.95 9.23311e-09 1.00156 0.256888
1007.94 9.20435e-09 1.00156 0.256845
1007.77 9.01774e-09 1.00154 0.255515
1007.72 8.92292e-09 1.00151 0.258303
1007.76 8.94187e-09 1.00142 0.258272
1007.9 9.17812e-09 1.00155 0.256899
1007.91 9.18158e-09 1.00155 0.256905
1007.92 9.19558e-09 1.00156 0.25682
1007.74 8.97456e-09 1.00154 0.255661
1000 0 1.00109 0.258875
1007.76 9.00004e-09 1.00154 0.255465
1007.95 8.77231e-09 1.00153 0.257706
1007.97 9.25553e-09 1.00156 0.257029
1007.79 9.03704e-09 1.00154 0.255622
1007.77 9.00117e-09 1.00154 0.254423
1008.04 8.74769e-09 1.00153 0.258111
1007.96 9.26929e-09 1.00156 0.258341
1000 0 1.0011 0.258602
1000 0 1.00109 0.25856
1007.84 8.90429e-09 1.00152 0.25789
1000 0 1.00109 0.258922
1007.87 8.68079e-09 1.00153 0.257782
1007.82 8.77191e-09 1.00152 0.257795
1007.97 9.24782e-09 1.00156 0.257145
1000 0 1.00109 0.258996
1008.06 8.70402e-09 1.00154 0.258158
1007.78 8.9604e-09 1.00147 0.257981
1007.84 8.85926e-09 1.00148 0.257914
1007.93 9.19492e-09 1.00155 0.256726
1007.93 8.68e-09 1.00153 0.25786
1007.95 9.23098e-09 1.00156 0.256994
1007.97 9.25648e-09 1.00156 0.25727
1007.81 9.06561e-09 1.00155 0.256078
1007.99 8.67785e-09 1.00153 0.25797
1008.13 8.71693e-09 1.00154 0.258148
1007.97 9.2692e-09 1.00156 0.258389
1007.91 9.18475e-09 1.00155 0.256777
1007.94 9.217e-09 1.00155 0.256773
1007.76 8.99801e-09 1.00154 0.255344
1007.98 9.2664e-09 1.00156 0.257739
1007.79 9.04378e-09 1.00154 0.255748
1007.82 9.08363e-09 1.00155 0.256292
1007.8 9.04595e-09 1.00155 0.254924
1000 0 1.00109 0.259098
1000 0 1.00109 0.259066
1000 0 1.00109 0.259028
1008.1 8.75504e-09 1.00154 0.258193
1000 0 1.00109 0.258947
1000 0 1.0011 0.2587
1000 0 1.00109 0.258814
1007.81 8.96998e-09 1.00152 0.258198
1007.76 8.9467e-09 1.00151 0.258279
1000 0 1.00109 0.258883
1000 0 1.00109 0.258873
1007.71 8.94486e-09 1.00151 0.258246
1007.77 8.97561e-09 1.00147 0.258183
1007.92 9.17182e-09 1.00155 0.25683
1007.74 8.98172e-09 1.00152 0.258088
1007.92 9.17729e-09 1.00155 0.256907
1007.73 8.91847e-09 1.00151 0.258257
1007.9 9.17068e-09 1.00155 0.256774
1007.91 9.17891e-09 1.00155 0.256899
1007.73 8.96398e-09 1.00153 0.255726
1007.91 9.18114e-09 1.00155 0.256863
1007.74 8.96765e-09 1.00153 0.255687
1000 0 1.00109 0.258854
1000 0 1.00127 0.259019
1007.75 8.9306e-09 1.00151 0.258269
1007.79 8.94495e-09 1.00142 0.25813
1000 0 1.00109 0.258629
1007.91 8.79896e-09 1.00144 0.258072
1007.82 8.92006e-09 1.00142 0.257996
1007.91 9.1869e-09 1.00155 0.256798
1007.93 9.2076e-09 1.00156 0.256836
1007.96 9.23719e-09 1.00156 0.256774
1007.77 9.01726e-09 1.00154 0.255504
1007.68 8.93804e-09 1.00151 0.258273
1007.74 8.95652e-09 1.00142 0.25823
1007.92 9.17496e-09 1.00155 0.256873
1007.92 9.17858e-09 1.00155 0.256918
1000 0 1.00109 0.258878
1007.95 8.78634e-09 1.00148 0.257847
1007.96 9.25173e-09 1.00156 0.257031
1007.93 9.19264e-09 1.00156 0.256791
1007.74 8.97478e-09 1.00154 0.255575
1007.79 9.03806e-09 1.00154 0.255597
1007.76 9.00035e-09 1.00154 0.255493
1007.77 9.00149e-09 1.00154 0.254431
1008.04 8.7585e-09 1.00153 0.258022
1007.96 9.2667e-09 1.00156 0.258322
1007.9 9.17335e-09 1.00155 0.25681
1007.91 9.17867e-09 1.00155 0.256942
1007.74 8.96539e-09 1.00154 0.255877
1007.74 8.9685e-09 1.00153 0.255562
1007.75 8.98528e-09 1.00154 0.255474
1007.73 8.96774e-09 1.00153 0.254524
1007.99 8.75214e-09 1.00153 0.257937
1007.75 8.98763e-09 1.00154 0.254288
1007.98 9.26786e-09 1.00156 0.257507
1007.81 9.06062e-09 1.00155 0.255934
1007.78 9.02015e-09 1.00154 0.254576
1007.76 8.99574e-09 1.00154 0.253304
1007.97 9.26782e-09 1.00156 0.258121
1007.95 9.26924e-09 1.00156 0.25863
1007.83 9.09697e-09 1.00155 0.257734
1007.84 8.94688e-09 1.00152 0.258007
1000 0 1.00109 0.258996
1008.06 8.69716e-09 1.00153 0.258213
1007.83 8.84251e-09 1.00152 0.257816
1007.93 9.19819e-09 1.00155 0.256732
1007.92 8.66829e-09 1.00153 0.257982
1007.98 9.25988e-09 1.00156 0.257308
1007.96 9.23511e-09 1.00156 0.257028
1007.81 9.06465e-09 1.00155 0.256028
1007.99 8.68696e-09 1.00153 0.258062
1008.12 8.7229e-09 1.00154 0.258149
1007.97 9.26668e-09 1.00156 0.258442
1007.92 9.18179e-09 1.00155 0.256765
1007.94 9.21341e-09 1.00155 0.256796
1007.76 8.99854e-09 1.00154 0.255354
1007.98 9.26303e-09 1.00156 0.257748
1007.8 9.04453e-09 1.00154 0.255782
1007.82 9.08453e-09 1.00155 0.256303
1007.8 9.04605e-09 1.00155 0.254822
1008.19 8.73832e-09 1.00154 0.258095
1007.97 9.26657e-09 1.00156 0.258165
1007.96 9.26917e-09 1.00156 0.25867
1007.83 9.10577e-09 1.00155 0.25788
1007.75 8.98978e-09 1.00154 0.2554
1007.77 9.01552e-09 1.00154 0.255434
1007.75 8.97683e-09 1.00154 0.253932
1007.83 9.09589e-09 1.00155 0.256983
1007.79 9.02449e-09 1.00154 0.254378
1007.82 9.07016e-09 1.00155 0.254992
1007.8 9.03717e-09 1.00154 0.253868
1007.92 9.26651e-09 1.00156 0.258758
1008.31 8.78114e-09 1.00155 0.257972
1000 0 1.00109 0.259113
1000 0 1.00109 0.259085
1000 0 1.00109 0.259053
1008.17 8.77598e-09 1.00154 0.258195
1000 0 1.00109 0.259003
1008.1 8.76405e-09 1.00154 0.258135
1000 0 1.00109 0.258941
1007.83 8.9679e-09 1.00152 0.258112
1007.78 8.96105e-09 1.00152 0.258266
1007.91 9.18038e-09 1.00155 0.256898
1007.9 9.17501e-09 1.00155 0.256832
1007.73 8.92987e-09 1.00151 0.258273
1000 0 1.00109 0.258884
1007.57 8.93471e-09 1.00151 0.258262
1007.9 9.16758e-09 1.00155 0.256775
1007.91 9.17584e-09 1.00155 0.256897
1007.73 8.96417e-09 1.00153 0.255721
1007.92 9.1782e-09 1.00155 0.256848
1007.74 8.96792e-09 1.00153 0.255684
1007.9 9.16991e-09 1.00154 0.256775
1007.73 8.96615e-09 1.00153 0.25574
1007.74 8.96637e-09 1.00153 0.255724
1007.73 8.95712e-09 1.00153 0.254675
1007.74 8.97333e-09 1.00153 0.255554
1007.73 8.9704e-09 1.00153 0.25459
1007.72 8.92292e-09 1.00151 0.258242
1007.76 8.94187e-09 1.00142 0.258174
1007.9 9.17812e-09 1.00154 0.256844
1007.91 9.18158e-09 1.00155 0.256925
1000 0 1.00109 0.258877
1007.95 8.77231e-09 1.00144 0.25788
1007.97 9.25553e-09 1.00157 0.257019
1007.92 9.19558e-09 1.00156 0.256761
1007.74 8.97456e-09 1.00153 0.255486
1007.76 9.00004e-09 1.00154 0.255522
1007.79 9.03704e-09 1.00154 0.255569
1007.77 9.00117e-09 1.00154 0.254436
1008.04 8.74769e-09 1.00153 0.257944
1007.96 9.26929e-09 1.00156 0.258305
1007.91 9.17022e-09 1.00154 0.256795
1007.91 9.17586e-09 1.00155 0.256919
1007.73 8.96561e-09 1.00153 0.25584
1007.74 8.96877e-09 1.00153 0.25564
1007.98 8.7643e-09 1.00153 0.25786
1007.97 9.2642e-09 1.00156 0.257456
1007.81 9.06173e-09 1.00155 0.255995
1007.75 8.98552e-09 1.00154 0.255502
1007.74 8.9678e-09 1.00153 0.254438
1007.78 9.02076e-09 1.00154 0.254487
1007.75 8.98783e-09 1.00154 0.254281
1007.76 8.99602e-09 1.00154 0.253229
1007.97 9.265e-09 1.00156 0.258147
1007.83 9.09769e-09 1.00155 0.257778
1007.95 9.26667e-09 1.00156 0.258569
1007.73 8.96717e-09 1.00153 0.255837
1007.74 8.96675e-09 1.00153 0.255771
1007.73 8.95655e-09 1.00153 0.254973
1007.73 8.95979e-09 1.00153 0.254401
1007.74 8.97674e-09 1.00153 0.254235
1007.73 8.96041e-09 1.00153 0.253231
1007.97 9.26874e-09 1.00156 0.257894
1007.75 8.97929e-09 1.00153 0.252861
1007.82 9.08151e-09 1.00155 0.25677
1007.8 9.04757e-09 1.00155 0.254621
1007.77 9.00775e-09 1.00154 0.253327
1007.75 8.98829e-09 1.00154 0.251813
1007.94 9.26739e-09 1.00156 0.25884
1007.83 9.09393e-09 1.00155 0.257795
1007.83 9.09906e-09 1.00155 0.257914
1007.84 9.08704e-09 1.00155 0.257264
1007.91 9.18475e-09 1.00155 0.256758
1008.13 8.71693e-09 1.00154 0.258131
1007.99 8.67785e-09 1.00153 0.258171
1007.97 9.2692e-09 1.00156 0.258503
1007.94 9.217e-09 1.00155 0.256817
1007.76 8.99801e-09 1.00154 0.25536
1007.98 9.2664e-09 1.00156 0.25775
1007.82 9.08363e-09 1.00155 0.256292
1007.79 9.04378e-09 1.00154 0.25582
1007.8 9.04595e-09 1.00155 0.254712
1008.19 8.74391e-09 1.00154 0.258071
1007.97 9.2639e-09 1.00156 0.258175
1007.96 9.2668e-09 1.00156 0.258749
1007.83 9.10581e-09 1.00155 0.257854
1007.74 8.98991e-09 1.00154 0.255405
1007.77 9.01638e-09 1.00154 0.255439
1007.75 8.97679e-09 1.00154 0.25394
1007.83 9.09637e-09 1.00155 0.256993
1007.79 9.02493e-09 1.00154 0.254463
1007.82 9.07044e-09 1.00155 0.254895
1007.8 9.03743e-09 1.00154 0.253925
1008.25 8.7577e-09 1.00154 0.258027
1007.95 9.2678e-09 1.00156 0.258863
1007.83 9.10115e-09 1.00155 0.25762
1007.83 9.10578e-09 1.00155 0.25829
1007.85 9.09815e-09 1.00155 0.257048
1007.74 8.94338e-09 1.00153 0.254048
1007.77 9.02078e-09 1.00154 0.253975
1007.75 8.96173e-09 1.00153 0.252298
1007.84 9.0912e-09 1.00155 0.255643
1007.78 9.01388e-09 1.00154 0.252774
1007.81 9.0454e-09 1.00155 0.253594
1007.93 9.26638e-09 1.00156 0.258816
1007.82 9.09892e-09 1.00155 0.259169
1007.91 9.26626e-09 1.00156 0.258723
1007.92 9.26512e-09 1.00156 0.258766
1008.36 8.80449e-09 1.00145 0.25824
1008.31 8.78641e-09 1.0015 0.258174
1000 0 1.00129 0.258528
1000 0 1.00109 0.259104
1000 0 1.00109 0.259075
1008.24 8.80515e-09 1.00154 0.258179
1000 0 1.00109 0.25904
1008.16 8.78362e-09 1.00154 0.258178
1000 0 1.00109 0.259003
1008.1 8.75504e-09 1.00154 0.258079
1000 0 1.00109 0.258933
1007.91 9.18114e-09 1.00155 0.256833
1007.91 9.17891e-09 1.00155 0.256895
1007.74 8.96765e-09 1.00153 0.255678
1007.73 8.96398e-09 1.00153 0.255715
1007.9 9.17068e-09 1.00154 0.256775
1007.73 8.91847e-09 1.00151 0.258243
1007.92 9.16653e-09 1.00154 0.256773
1007.73 8.96626e-09 1.00153 0.255737
1007.74 8.96659e-09 1.00153 0.255718
1007.73 8.95703e-09 1.00153 0.25458
1007.74 8.97362e-09 1.00153 0.255547
1007.73 8.97039e-09 1.00153 0.254602
1007.73 8.96997e-09 1.00153 0.255763
1007.72 8.94286e-09 1.00153 0.254831
1007.73 8.9611e-09 1.00153 0.254506
1007.73 8.91998e-09 1.00153 0.253738
1007.74 8.96637e-09 1.00153 0.254435
1007.73 8.93025e-09 1.00153 0.252924
1007.9 9.17335e-09 1.00154 0.256786
1007.91 9.17867e-09 1.00155 0.256897
1007.74 8.96539e-09 1.00153 0.255803
1007.74 8.9685e-09 1.00154 0.255717
1007.99 8.75214e-09 1.00153 0.257786
1007.98 9.26786e-09 1.00156 0.257412
1007.81 9.06062e-09 1.00155 0.256062
1007.75 8.98528e-09 1.00154 0.255533
1007.73 8.96774e-09 1.00153 0.254352
1007.75 8.98763e-09 1.00154 0.254274
1007.78 9.02015e-09 1.00154 0.254409
1007.76 8.99574e-09 1.00154 0.253148
1007.97 9.26782e-09 1.00156 0.258167
1007.83 9.09697e-09 1.00155 0.257814
1007.95 9.26924e-09 1.00156 0.258516
1007.73 8.9673e-09 1.00153 0.25581
1007.74 8.96701e-09 1.00153 0.255736
1007.73 8.95639e-09 1.00153 0.254927
1007.73 8.95966e-09 1.00153 0.254443
1007.97 9.26519e-09 1.00156 0.257909
1007.82 9.08165e-09 1.00155 0.256767
1007.8 9.04892e-09 1.00155 0.254677
1007.74 8.97676e-09 1.00153 0.254297
1007.73 8.96016e-09 1.00153 0.253151
1007.78 9.00821e-09 1.00154 0.253262
1007.75 8.97928e-09 1.00153 0.252879
1007.75 8.98822e-09 1.00154 0.251729
1007.83 9.09433e-09 1.00155 0.257784
1007.84 9.08746e-09 1.00155 0.25726
1007.94 9.26525e-09 1.00156 0.258786
1007.83 9.09908e-09 1.00155 0.257964
1007.72 8.93565e-09 1.00153 0.25499
1007.73 8.96001e-09 1.00153 0.254753
1007.73 8.95661e-09 1.00153 0.254071
1007.73 8.96436e-09 1.00153 0.252715
1007.74 8.96495e-09 1.00153 0.252991
1007.73 8.96942e-09 1.00153 0.252418
1007.83 9.0896e-09 1.00155 0.257513
1007.74 8.98481e-09 1.00153 0.251281
1007.83 9.07704e-09 1.00155 0.255446
1007.79 9.02403e-09 1.00154 0.253317
1007.77 9.00281e-09 1.00154 0.25205
1007.75 9.00069e-09 1.00154 0.250956
1007.93 9.26526e-09 1.00156 0.258896
1007.83 9.09857e-09 1.00155 0.258279
1007.84 9.08502e-09 1.00155 0.257294
1007.85 9.09424e-09 1.00155 0.257219
1007.84 9.09083e-09 1.00155 0.257038
1008.19 8.73832e-09 1.00154 0.258038
1007.75 8.98978e-09 1.00154 0.255412
1007.96 9.26917e-09 1.00156 0.258849
1007.97 9.26657e-09 1.00156 0.258172
1007.83 9.10577e-09 1.00155 0.25783
1007.77 9.01552e-09 1.00154 0.25544
1007.75 8.97683e-09 1.00154 0.253948
1007.83 9.09589e-09 1.00155 0.25702
1007.82 9.07016e-09 1.00155 0.254769
1007.79 9.02449e-09 1.00154 0.254549
1007.8 9.03717e-09 1.00154 0.253994
1008.25 8.7632e-09 1.00154 0.258003
1007.95 9.26597e-09 1.00156 0.258914
1007.83 9.10177e-09 1.00155 0.257631
1007.83 9.10544e-09 1.00155 0.258294
1007.85 9.09819e-09 1.00155 0.257008
1007.74 8.94456e-09 1.00153 0.254028
1007.77 9.02086e-09 1.00154 0.253977
1007.75 8.96282e-09 1.00153 0.252231
1007.84 9.09063e-09 1.00155 0.255688
1007.78 9.01341e-09 1.00154 0.25288
1007.81 9.04558e-09 1.00155 0.253664
1007.94 9.26685e-09 1.00156 0.258872
1007.83 9.10265e-09 1.00155 0.258752
1007.84 9.09611e-09 1.00155 0.256583
1007.86 9.1045e-09 1.00155 0.257374
1007.85 9.09391e-09 1.00155 0.256614
1007.74 8.96412e-09 1.00153 0.253043
1007.75 8.87748e-09 1.00154 0.251935
1007.74 9.12187e-09 1.00153 0.250395
1007.83 9.0651e-09 1.00155 0.254281
1007.77 8.94559e-09 1.00154 0.252134
1007.93 9.26494e-09 1.00156 0.258827
1007.82 9.10012e-09 1.00155 0.259124
1007.82 9.09891e-09 1.00155 0.259164
1007.86 9.09724e-09 1.00155 0.258673
1007.82 9.09723e-09 1.00155 0.259155
1007.9 9.26581e-09 1.00156 0.258716
1007.91 9.26492e-09 1.00156 0.258727
1008.41 8.83516e-09 1.00145 0.258216
1007.92 9.26651e-09 1.00156 0.258775
1008.36 8.80954e-09 1.00145 0.258321
1000 0 1.00129 0.258527
1008.31 8.78114e-09 1.00145 0.258306
1000 0 1.00119 0.258689
1000 0 1.00109 0.259097
1008.31 8.83566e-09 1.00155 0.25813
1008.23 8.81182e-09 1.00154 0.258172
1000 0 1.00109 0.259064
1000 0 1.00109 0.259049
1008.17 8.77598e-09 1.00154 0.258153
1000 0 1.00109 0.258996
1007.74 8.97333e-09 1.00153 0.255539
1007.74 8.96637e-09 1.00153 0.255716
1007.73 8.9704e-09 1.00153 0.254617
1007.73 8.95712e-09 1.00153 0.254485
1007.73 8.96615e-09 1.00153 0.255733
1007.9 9.16991e-09 1.00154 0.256767
1007.73 8.97027e-09 1.00153 0.255763
1007.72 8.94291e-09 1.00153 0.254884
1007.73 8.96092e-09 1.00153 0.25451
1007.72 8.91978e-09 1.00153 0.253592
1007.74 8.96623e-09 1.00153 0.25442
1007.73 8.92997e-09 1.00153 0.252922
1007.72 8.93378e-09 1.00153 0.255089
1007.72 8.88567e-09 1.00153 0.254182
1007.73 8.94263e-09 1.00153 0.253008
1007.75 9.17006e-09 1.00153 0.252894
1007.74 8.95519e-09 1.00153 0.25342
1007.75 9.07322e-09 1.00153 0.251733
1007.73 8.96717e-09 1.00153 0.255781
1007.74 8.96675e-09 1.00153 0.255701
1007.73 8.95655e-09 1.00153 0.254886
1007.73 8.95979e-09 1.00153 0.254489
1007.97 9.26874e-09 1.00156 0.257919
1007.82 9.08151e-09 1.00155 0.25676
1007.8 9.04757e-09 1.00155 0.254729
1007.74 8.97674e-09 1.00153 0.254356
1007.73 8.96041e-09 1.00153 0.253073
1007.75 8.97929e-09 1.00153 0.252899
1007.77 9.00775e-09 1.00154 0.253188
1007.75 8.98829e-09 1.00154 0.251652
1007.83 9.09393e-09 1.00155 0.257779
1007.84 9.08704e-09 1.00155 0.257261
1007.94 9.26739e-09 1.00156 0.258733
1007.83 9.09906e-09 1.00155 0.258014
1007.72 8.93578e-09 1.00153 0.254995
1007.73 8.96021e-09 1.00153 0.254742
1007.73 8.95697e-09 1.00153 0.254073
1007.73 8.96488e-09 1.00153 0.252833
1007.83 9.08986e-09 1.00155 0.257494
1007.83 9.07734e-09 1.00155 0.255564
1007.8 9.02484e-09 1.00154 0.25324
1007.74 8.96541e-09 1.00153 0.253082
1007.73 8.9703e-09 1.00153 0.252337
1007.77 9.00305e-09 1.00154 0.252032
1007.74 8.9855e-09 1.00153 0.251292
1007.75 9.00114e-09 1.00154 0.250911
1007.84 9.08463e-09 1.00155 0.257287
1007.84 9.09093e-09 1.00155 0.257016
1007.85 9.0944e-09 1.00155 0.257214
1007.93 9.26354e-09 1.00156 0.258853
1007.83 9.09864e-09 1.00155 0.25832
1007.73 8.95671e-09 1.00153 0.254173
1007.72 8.90588e-09 1.00153 0.253375
1007.72 8.9203e-09 1.00153 0.251647
1007.73 8.97155e-09 1.00153 0.25171
1007.84 9.08754e-09 1.00155 0.256705
1007.73 8.98276e-09 1.00153 0.249477
1007.82 9.051e-09 1.00155 0.254221
1007.78 8.99061e-09 1.00154 0.251778
1007.77 9.12473e-09 1.00154 0.250715
1007.92 9.26419e-09 1.00156 0.258866
1007.83 9.09867e-09 1.00155 0.25858
1007.85 9.09734e-09 1.00155 0.257586
1007.84 9.08159e-09 1.00155 0.256897
1007.85 9.09652e-09 1.00155 0.256739
1007.84 9.0823e-09 1.00155 0.256721
1008.25 8.7577e-09 1.00154 0.257977
1007.95 9.2678e-09 1.00156 0.258966
1007.74 8.94338e-09 1.00153 0.254007
1007.83 9.10578e-09 1.00155 0.258295
1007.83 9.10115e-09 1.00155 0.257642
1007.85 9.09815e-09 1.00155 0.256967
1007.77 9.02078e-09 1.00154 0.253979
1007.75 8.96173e-09 1.00153 0.252172
1007.84 9.0912e-09 1.00155 0.255729
1007.81 9.0454e-09 1.00155 0.253714
1007.78 9.01388e-09 1.00154 0.252968
1007.94 9.26527e-09 1.00156 0.258892
1007.83 9.10236e-09 1.00155 0.258788
1007.84 9.09613e-09 1.00155 0.256603
1007.85 9.10382e-09 1.00155 0.257378
1007.85 9.0942e-09 1.00155 0.25654
1007.74 8.95865e-09 1.00153 0.252991
1007.75 8.87954e-09 1.00154 0.25197
1007.74 9.11679e-09 1.00153 0.250338
1007.83 9.06593e-09 1.00155 0.254223