# vtk DataFile Version 2.0
Wound Healing Simulation
ASCII
DATASET UNSTRUCTURED_GRID
POINTS 3012 float
69.9759 18.75 4
67.2507 60.3285 4
69.976 18.75 2
73.0099 25.446 4
71.1327 20.9142 4
68.6801 16.6661 4
67.8219 19.9262 3.97467
67.2507 60.3286 2
71.1327 54.0858 4
68.6801 58.3339 4
65.6939 62.2254 4
65.3089 58.999 3.973
74.6784 42.3946 4
73.7221 47.2057 4
69.9759 18.75 0
73.0099 25.446 2
68.6801 16.6661 2
71.1327 20.9142 2
67.8228 19.9303 2
74.6792 32.6053 4
73.7222 27.7943 4
72.1454 23.1494 4
70.6116 26.2215 3.9745
68.8824 21.9578 3.97505
67.2507 14.6715 4
66.6332 17.9729 3.97341
65.7759 21.0324 3.96323
67.2507 60.3285 0
71.1327 54.0858 2
68.6801 58.3339 2
65.694 62.2255 2
65.3098 58.9945 2
72.1454 51.8506 4
69.9759 56.25 4
68.8329 53.1138 3.97463
64.0165 64.0165 4
66.6071 57.1327 3.97442
63.8821 60.7631 3.97263
63.4914 57.7636 3.96462
60.3285 67.2507 4
74.6792 42.3947 2
73.7222 47.2057 2
74.9194 39.9526 4
74.2788 44.8158 4
72.1663 42.0857 3.97589
73.0099 49.554 4
71.2468 46.5982 3.97441
73.0099 25.446 0
71.1327 20.9142 0
68.6801 16.6661 0
67.8219 19.9262 0.0253278
74.6792 32.6053 2
73.7222 27.7943 2
67.2508 14.6715 2
72.1455 23.1494 2
70.611 26.2224 2
66.6347 17.9777 2
68.8827 21.9608 2
65.7732 21.0347 2
74.9197 35.0474 4
74.2794 30.1841 4
72.183 32.9444 3.97635
71.276 28.4324 3.9748
69.8126 24.0596 3.97477
68.3363 26.9558 3.96414
66.7443 22.9391 3.9635
65.694 12.7746 4
65.3192 16.1058 3.97159
64.6965 19.2031 3.96301
63.7796 22.077 3.96424
71.1327 54.0858 0
65.6939 62.2254 0
68.6801 58.3339 0
65.3089 58.999 0.0269975
72.1455 51.8506 2
69.9759 56.25 2
68.8331 53.111 2
64.0165 64.0165 2
66.6083 57.1284 2
63.8834 60.7579 2
63.4891 57.7634 2
62.2254 65.694 4
58.8915 65.4126 3.98233
69.7657 50.9896 3.97435
67.7801 55.1674 3.97474
66.6262 52.204 3.96356
62.3323 62.4244 3.97651
64.6486 56.0263 3.96382
62.1947 59.3905 3.96469
61.7563 56.6469 3.96106
58.3339 68.6801 4
60.3285 67.2508 2
73.7221 47.2057 0
74.6784 42.3946 0
74.9197 39.9526 2
74.2794 44.8159 2
72.1655 42.0855 2
73.0099 49.554 2
71.2461 46.5977 2
75 37.5 4
72.4037 39.8025 3.97711
71.7804 44.3531 3.97567
69.7983 41.7898 3.96655
70.5723 48.814 3.97411
68.902 46.013 3.9653
74.6792 32.6053 0
73.7222 27.7943 0
67.2507 14.6715 0
72.1454 23.1494 0
70.6116 26.2215 0.0255007
68.8824 21.9578 0.0249507
66.6332 17.9729 0.0265949
65.7759 21.0324 0.0367658
74.9197 35.0474 2
74.2794 30.1841 2
72.1822 32.9447 2
71.2755 28.4327 2
65.694 12.7745 2
65.3209 16.111 2
69.8124 24.0614 2
68.3385 26.9568 2
64.6902 19.2057 2
66.7443 22.941 2
63.7788 22.078 2
72.4116 35.225 3.97717
71.8019 30.6774 3.9758
69.8346 33.2715 3.96661
68.9598 29.0419 3.96499
67.5974 24.917 3.96374
66.0728 27.6669 3.96886
64.0165 10.9835 4
64.6414 23.8693 3.96594
63.8853 14.3309 3.97183
63.5022 17.4576 3.96276
62.8052 20.3651 3.96232
61.8871 23.0221 3.96888
60.6806 11.1021 3.97735
57.6048 11.4771 3.96863
72.1454 51.8506 0
69.9759 56.25 0
68.8329 53.1138 0.0253662
64.0165 64.0165 0
63.8821 60.7631 0.0273658
66.6071 57.1327 0.0255842
63.4914 57.7636 0.0353779
62.2255 65.694 2
58.8936 65.4084 2
69.7655 50.9878 2
67.7808 55.1636 2
66.6257 52.2026 2
62.3346 62.4195 2
64.6421 56.0245 2
62.1919 59.3903 2
61.7552 56.6473 2
60.6656 63.9732 3.97908
57.0222 66.7335 3.98505
57.5513 63.6717 3.97094
67.4855 50.1721 3.96397
65.6829 54.1682 3.96357
64.4048 51.3464 3.96612
60.7672 60.9171 3.96776
62.7292 55.0318 3.96339
60.6094 58.1237 3.95979
60.1957 55.7232 3.96489
56.25 69.9759 4
58.3339 68.6801 2
60.3285 67.2507 0
58.9179 9.66013 3.9787
62.2254 9.30607 4
73.0099 49.554 0
74.2788 44.8158 0
71.2468 46.5982 0.0255934
72.1663 42.0857 0.0241078
74.9194 39.9526 0
75 37.5 2
72.4034 39.8025 2
71.7801 44.3526 2
69.7975 41.7896 2
70.5717 48.813 2
68.9047 46.0126 2
72.4871 37.5127 3.97672
70.036 39.6582 3.96706
69.4246 43.9071 3.96629
67.4895 41.4876 3.97361
68.2478 48.1037 3.96451
66.5739 45.415 3.97111
74.9197 35.0474 0
74.2794 30.1841 0
72.183 32.9444 0.0236483
71.276 28.4324 0.0252034
65.694 12.7746 0
65.3192 16.1058 0.0284149
69.8126 24.0596 0.0252276
68.3363 26.9558 0.0358562
66.7443 22.9391 0.0365048
64.6965 19.2031 0.0369857
63.7796 22.077 0.0357587
72.4114 35.225 2
71.8017 30.678 2
69.8338 33.2722 2
68.9596 29.0427 2
64.0165 10.9835 2
63.8873 14.3363 2
63.4985 17.4591 2
67.5987 24.9184 2
66.0716 27.6678 2
62.8037 20.366 2
64.6401 23.8705 2
61.886 23.0231 2
60.6833 11.1068 2
57.6057 11.4701 2
70.0529 35.3944 3.96714
69.4613 31.153 3.96565
67.5538 33.6048 3.97269
66.6528 29.6497 3.97006
65.4047 25.7354 3.9676
63.8987 28.3179 3.97566
62.3374 12.659 3.9755
62.6323 24.7122 3.9713
62.189 15.8019 3.96492
61.7288 18.731 3.96001
61.0229 21.4256 3.96566
60.1272 23.8413 3.97286
59.2386 12.8112 3.96544
55.8677 10.2616 3.97246
56.3926 13.1754 3.96933
69.7657 50.9896 0.0256466
62.2254 65.694 0
58.8915 65.4126 0.0176698
67.7801 55.1674 0.0252552
66.6262 52.204 0.0364443
62.3323 62.4244 0.0234884
62.1947 59.3905 0.0353075
64.6486 56.0263 0.0361827
61.7563 56.6469 0.0389401
60.6679 63.9703 2
57.025 66.7307 2
57.5522 63.6759 2
67.4866 50.171 2
65.6798 54.1666 2
64.404 51.3458 2
60.7654 60.9186 2
62.7278 55.0318 2
60.6111 58.1254 2
60.1943 55.7231 2
55.068 67.931 3.98719
59.2126 62.3356 3.9682
55.7997 64.8989 3.97332
56.3149 62.0419 3.97166
65.1883 49.3715 3.96764
63.5883 53.2534 3.96466
62.1848 50.5782 3.97029
59.3113 59.5224 3.96059
60.8979 54.2409 3.9675
59.1647 56.9445 3.96118
59.0523 55.1006 3.968
48.0994 68.5732 3.98298
50.9459 69.9311 3.98928
54.0858 71.1327 4
56.25 69.976 2
58.3339 68.6801 0
57.0554 8.33901 3.9811
60.3285 7.74928 4
58.921 9.6642 2
62.2255 9.30602 2
70.5723 48.814 0.0258896
71.7804 44.3531 0.024334
68.902 46.013 0.0346986
69.7983 41.7898 0.0334508
72.4037 39.8025 0.0228935
75 37.5 0
72.4863 37.5126 2
70.0358 39.6582 2
69.4239 43.9066 2
67.4872 41.4873 2
68.25 48.1029 2
66.5723 45.4144 2
70.1241 37.5232 3.96717
67.7347 39.5088 3.9737
67.0993 43.4527 3.97224
65.3018 41.1865 3.97632
65.925 47.3862 3.9696
64.3722 44.7975 3.97633
72.4116 35.225 0.0228266
71.8019 30.6774 0.0241991
69.8346 33.2715 0.033392
68.9598 29.0419 0.0350063
64.0165 10.9835 0
63.8853 14.3309 0.0281723
63.5022 17.4576 0.0372366
67.5974 24.917 0.0362627
66.0728 27.6669 0.0311415
64.6414 23.8693 0.0340558
62.8052 20.3651 0.0376815
61.8871 23.0221 0.0311247
60.6806 11.1021 0.022647
57.6048 11.4771 0.0313737
70.0526 35.3948 2
69.461 31.1537 2
67.5518 33.6053 2
66.6506 29.6505 2
62.34 12.6643 2
62.1871 15.8031 2
61.7272 18.7316 2
65.4031 25.7366 2
63.8964 28.3193 2
61.0221 21.4264 2
62.6306 24.7135 2
60.1253 23.8426 2
59.2389 12.8118 2
56.394 13.1731 2
55.8701 10.2603 2
67.7729 35.5556 3.97316
67.1578 31.6426 3.97183
65.4586 33.9539 3.97664
64.4085 30.2457 3.9762
63.3008 26.4834 3.97368
61.8942 28.8714 3.97587
60.7673 14.2477 3.96586
60.7201 25.4477 3.97513
60.5578 17.173 3.95918
60.0379 19.9058 3.96194
59.3738 22.3791 3.96852
58.6055 24.4658 3.97441
54.0332 9.14953 3.97179
57.8941 14.3818 3.96355
54.7742 12.074 3.96703
55.2891 14.724 3.9636
67.4855 50.1721 0.036033
57.0222 66.7335 0.0149501
60.6656 63.9732 0.0209175
57.5513 63.6717 0.0290633
65.6829 54.1682 0.0364336
64.4048 51.3464 0.033877
60.7672 60.9171 0.0322351
60.6094 58.1237 0.0402114
62.7292 55.0318 0.0366094
60.1957 55.7232 0.0351144
55.0707 67.9289 2
59.2124 62.3386 2
55.8005 64.8972 2
56.3135 62.042 2
65.1869 49.3708 2
63.5882 53.2533 2
62.184 50.5776 2
59.3135 59.5263 2
60.8978 54.2409 2
59.171 56.9463 2
59.0572 55.1015 2
53.0401 68.9992 3.98864
53.9627 66.0037 3.97733
57.8659 60.8308 3.96813
54.6717 63.1685 3.97077
55.1916 60.5616 3.97526
62.9198 48.5918 3.97257
61.5198 52.5024 3.96879
59.9012 49.912 3.9729
57.943 58.2048 3.96043
59.0831 53.8544 3.96979
57.9065 55.7158 3.96318
50.106 67.8509 3.9819
47.4598 66.5684 3.97729
46.0535 69.1528 3.98449
48.1006 68.5729 2
48.7999 70.7224 3.98984
50.948 69.9301 2
51.8506 72.1454 4
54.0858 71.1327 2
56.25 69.9759 0
55.1003 7.14333 3.98488
58.3339 6.31992 4
57.0587 8.3427 2
60.3286 7.74926 2
58.9179 9.66013 0.0213011
62.2254 9.30607 0
68.2478 48.1037 0.0354932
69.4246 43.9071 0.0337139
66.5739 45.415 0.0288891
67.4895 41.4876 0.0263869
70.036 39.6582 0.0329367
72.4871 37.5127 0.0232772
70.1234 37.5234 2
67.7322 39.5087 2
67.0978 43.4524 2
65.2988 41.1861 2
65.9237 47.3855 2
64.3707 44.7966 2
67.835 37.5244 3.97352
65.5415 39.3605 3.97654
64.912 42.9861 3.97654
63.3916 40.8974 3.97657
63.6805 46.6554 3.9747
62.4068 44.1422 3.9762
70.0529 35.3944 0.0328606
69.4613 31.153 0.0343451
67.5538 33.6048 0.0273135
66.6528 29.6497 0.029939
62.3374 12.659 0.0244998
62.189 15.8019 0.0350828
61.7288 18.731 0.0399913
65.4047 25.7354 0.032405
63.8987 28.3179 0.0243386
62.6323 24.7122 0.0286965
61.0229 21.4256 0.0343381
60.1272 23.8413 0.0271428
59.2386 12.8112 0.0345589
56.3926 13.1754 0.0306665
55.8677 10.2616 0.0275393
67.7702 35.556 2
67.1563 31.6432 2
65.4547 33.9546 2
64.4057 30.247 2
60.7667 14.2488 2
60.553 17.1738 2
60.0357 19.9068 2
63.2987 26.4848 2
61.8921 28.8721 2
59.3753 22.3798 2
60.718 25.4491 2
58.6027 24.4674 2
57.8928 14.3826 2
55.2908 14.7207 2
54.0358 9.14898 2
54.775 12.0711 2
65.6401 35.6821 3.97655
64.9313 32.1945 3.97622
63.9612 34.2827 3.97644
62.2115 30.71 3.97607
61.3048 27.1763 3.97561
60.408 29.2516 3.97616
59.2826 15.7141 3.95959
58.9185 25.9439 3.97605
58.9884 18.4408 3.95976
58.4759 20.9794 3.96373
57.9272 23.2441 3.96998
57.5589 24.8311 3.97549
52.1091 8.16435 3.97579
53.0472 11.0628 3.96906
56.6401 15.8146 3.95917
53.7876 13.7629 3.96691
54.3262 16.0957 3.95998
55.068 67.931 0.0128081
65.1883 49.3715 0.0323643
55.7997 64.8989 0.0266789
59.2126 62.3356 0.0317999
56.3149 62.0419 0.0283406
63.5883 53.2534 0.0353426
62.1848 50.5782 0.0297095
59.3113 59.5224 0.0394056
59.1647 56.9445 0.0388198
60.8979 54.2409 0.0324958
59.0523 55.1006 0.0320021
53.0425 68.9979 2
53.964 66.0031 2
57.865 60.832 2
54.6709 63.1697 2
55.1891 60.5614 2
62.9181 48.5909 2
61.5202 52.5023 2
59.9023 49.9117 2
57.9414 58.2061 2
59.0874 53.855 2
57.9026 55.7143 2
52.0671 66.9927 3.9805
52.9456 64.1967 3.97473
56.6142 59.4392 3.96331
53.6583 61.5621 3.97251
[...]
POINT_DATA 3012
SCALARS rho_c_phif_kappa float 4
LOOKUP_TABLE default
1000 0 1.00209 0.27011
1000 0 1.0017 0.270477
1000 0 1.00209 0.270201
1000 0 1.00209 0.270563
1000 0 1.00209 0.270226
1000 0 1.0021 0.270093
1010.91 1.20472e-08 1.00244 0.26888
1000 0 1.0017 0.270508
1000 0 1.0017 0.271038
1000 0 1.00171 0.270695
1000 0 1.0021 0.270032
1010.86 1.18059e-08 1.00264 0.268945
1000 0 1.00208 0.271005
1000 0 1.00209 0.271742
1000 0 1.0021 0.270271
1000 0 1.00209 0.271034
1000 0 1.0021 0.27007
1000 0 1.00209 0.270458
1010.8 1.20813e-08 1.00244 0.268875
1000 0 1.0017 0.271069
1000 0 1.00209 0.270684
1000 0 1.00209 0.270396
1010.86 1.21848e-08 1.00243 0.269816
1010.88 1.21025e-08 1.00244 0.269212
1000 0 1.0021 0.270174
1010.93 1.19929e-08 1.00244 0.268534
1011.92 1.36824e-08 1.00279 0.265086
1000 0 1.0017 0.270566
1000 0 1.0019 0.270669
1000 0 1.0019 0.27038
1000 0 1.0017 0.270698
1010.86 1.18482e-08 1.00264 0.268852
1000 0 1.00209 0.270422
1000 0 1.00209 0.269959
1010.9 1.21244e-08 1.00244 0.268916
1000 0 1.0017 0.271255
1010.86 1.19009e-08 1.00244 0.268931
1010.91 1.17586e-08 1.00264 0.268878
1011.94 1.36537e-08 1.00279 0.265157
1000 0 1.0017 0.271483
1000 0 1.0017 0.27107
1000 0 1.00189 0.271357
1000 0 1.0017 0.271114
1000 0 1.00209 0.271868
1010.81 1.22077e-08 1.00262 0.269884
1000 0 1.0017 0.271625
1010.88 1.22419e-08 1.00243 0.26948
1000 0 1.00208 0.271535
1000 0 1.00209 0.270691
1000 0 1.0021 0.270025
1010.91 1.20472e-08 1.00244 0.268868
1000 0 1.00189 0.271386
1000 0 1.00209 0.271206
1000 0 1.0021 0.270084
1000 0 1.00209 0.270767
1010.64 1.22153e-08 1.00243 0.269577
1010.88 1.20308e-08 1.00244 0.268629
1010.72 1.21335e-08 1.00244 0.269113
1011.93 1.36785e-08 1.00279 0.264933
1000 0 1.0017 0.271128
1000 0 1.00209 0.270778
1010.8 1.2181e-08 1.00242 0.270251
1010.84 1.22011e-08 1.00243 0.270014
1010.87 1.21516e-08 1.00243 0.26953
1011.89 1.3686e-08 1.00278 0.266122
1011.91 1.36837e-08 1.00278 0.265069
1000 0 1.0021 0.270442
1010.98 1.19461e-08 1.00245 0.268144
1011.94 1.36838e-08 1.00279 0.264908
1011.78 1.35693e-08 1.00277 0.259515
1000 0 1.0017 0.270517
1000 0 1.0017 0.270894
1000 0 1.0017 0.270403
1010.86 1.18059e-08 1.00264 0.268768
1000 0 1.0017 0.270679
1000 0 1.00171 0.270392
1010.74 1.21561e-08 1.00263 0.269096
1000 0 1.0019 0.270822
1010.8 1.1939e-08 1.00264 0.268952
1010.95 1.18022e-08 1.00255 0.268765
1011.94 1.36488e-08 1.00279 0.26531
1000 0 1.0017 0.271214
1011.21 1.18096e-08 1.00267 0.26954
1010.91 1.21986e-08 1.00263 0.269269
1010.88 1.20179e-08 1.00263 0.269043
1011.9 1.36852e-08 1.00278 0.264924
1010.99 1.17499e-08 1.00246 0.268736
1011.93 1.36611e-08 1.00279 0.264888
1011.97 1.36634e-08 1.0028 0.265449
1011.82 1.36174e-08 1.00277 0.260634
1000 0 1.00171 0.271717
1000 0 1.00171 0.271664
1000 0 1.0017 0.270914
1000 0 1.0017 0.271065
1000 0 1.0017 0.271103
1000 0 1.00189 0.271446
1010.51 1.22374e-08 1.00252 0.269817
1000 0 1.0019 0.271183
1010.68 1.2273e-08 1.00253 0.269667
1000 0 1.0017 0.271122
1010.79 1.21833e-08 1.00262 0.270027
1010.85 1.2229e-08 1.00243 0.269607
1011.87 1.36826e-08 1.00277 0.267091
1010.9 1.22364e-08 1.00243 0.269359
1011.89 1.36915e-08 1.00278 0.266405
1000 0 1.00208 0.270987
1000 0 1.00208 0.271779
1000 0 1.0021 0.269997
1000 0 1.00209 0.271145
1010.86 1.21848e-08 1.00243 0.269339
1010.88 1.21025e-08 1.00244 0.269018
1010.93 1.19929e-08 1.00244 0.26871
1011.92 1.36824e-08 1.00279 0.264798
1000 0 1.0017 0.271094
1000 0 1.00209 0.271307
1010.51 1.22111e-08 1.00252 0.269901
1010.63 1.2232e-08 1.00243 0.269785
1000 0 1.0019 0.270322
1010.98 1.19887e-08 1.00245 0.268455
1010.68 1.21815e-08 1.00243 0.26934
1011.91 1.36817e-08 1.00277 0.26605
1011.94 1.36795e-08 1.00279 0.264664
1011.92 1.36797e-08 1.00278 0.265143
1011.78 1.35698e-08 1.00277 0.259517
1010.76 1.21714e-08 1.00261 0.270092
1010.83 1.21981e-08 1.00243 0.270105
1011.87 1.36785e-08 1.00277 0.267121
1011.88 1.3686e-08 1.00277 0.26655
1011.89 1.36854e-08 1.00277 0.265516
1011.75 1.35326e-08 1.00276 0.262332
1000 0 1.00171 0.270982
1011.77 1.35532e-08 1.00276 0.260014
1011.04 1.19122e-08 1.00266 0.268273
1011.96 1.36931e-08 1.00279 0.264689
1011.79 1.3588e-08 1.00277 0.259046
1011.72 1.34931e-08 1.00276 0.255832
1011.16 1.1887e-08 1.00267 0.26895
1012.06 1.3749e-08 1.00281 0.267551
1000 0 1.0017 0.27067
1000 0 1.0017 0.270419
1010.9 1.21244e-08 1.00263 0.269143
1000 0 1.0017 0.271219
1010.91 1.17586e-08 1.00265 0.268641
1010.86 1.19009e-08 1.00264 0.268928
1011.94 1.36537e-08 1.00279 0.265447
1000 0 1.0017 0.271375
1011.25 1.1839e-08 1.00267 0.269776
1010.72 1.22292e-08 1.00253 0.269227
1010.76 1.20522e-08 1.00254 0.268967
1011.92 1.36813e-08 1.00278 0.26495
1011.04 1.17897e-08 1.00265 0.268754
1011.93 1.36576e-08 1.00279 0.265029
1011.97 1.36598e-08 1.0028 0.26562
1011.82 1.36187e-08 1.00277 0.26029
1011.08 1.17741e-08 1.00266 0.268967
1011.32 1.18489e-08 1.00268 0.270063
1012.07 1.37316e-08 1.00281 0.268445
1011.9 1.36921e-08 1.00278 0.26532
1011.91 1.36741e-08 1.00278 0.264752
1011.76 1.35395e-08 1.00276 0.259557
1012 1.36856e-08 1.0028 0.266275
1011.8 1.35918e-08 1.00277 0.258845
1011.84 1.3642e-08 1.00278 0.261787
1011.76 1.35366e-08 1.00277 0.257102
1000 0 1.00171 0.271812
1000 0 1.00171 0.271778
1000 0 1.00171 0.271747
1011.27 1.19042e-08 1.00268 0.26962
1000 0 1.00171 0.271271
1000 0 1.0017 0.270813
1000 0 1.0017 0.271002
1010.88 1.22419e-08 1.00263 0.269886
1010.81 1.22077e-08 1.00262 0.270051
1000 0 1.0017 0.271123
1000 0 1.0017 0.271122
1010.72 1.22107e-08 1.00262 0.270045
1010.81 1.22578e-08 1.00253 0.269788
1011.91 1.36784e-08 1.00277 0.267094
1010.68 1.22674e-08 1.00263 0.26963
1011.91 1.36869e-08 1.00278 0.266383
1010.76 1.21646e-08 1.00261 0.270063
1011.87 1.36771e-08 1.00277 0.267274
1011.88 1.36877e-08 1.00277 0.266834
1011.75 1.35239e-08 1.00276 0.264856
1011.89 1.36932e-08 1.00278 0.265876
1011.75 1.3526e-08 1.00276 0.263
1000 0 1.0017 0.271104
1000 0 1.00209 0.271881
1010.8 1.2181e-08 1.00262 0.269902
1010.84 1.22011e-08 1.00243 0.269541
1000 0 1.00171 0.270788
1010.98 1.19461e-08 1.00245 0.268774
1010.87 1.21516e-08 1.00243 0.269155
1011.89 1.3686e-08 1.00277 0.265967
1011.91 1.36837e-08 1.00278 0.265208
1011.94 1.36838e-08 1.00279 0.264442
1011.78 1.35693e-08 1.00277 0.259514
1010.68 1.21989e-08 1.00261 0.27007
1010.78 1.22272e-08 1.00243 0.269894
1011.9 1.36743e-08 1.00277 0.267037
1011.91 1.36817e-08 1.00277 0.266559
1000 0 1.00171 0.270885
1011.06 1.19549e-08 1.00256 0.268478
1011.96 1.36879e-08 1.0028 0.264622
1011.91 1.36812e-08 1.00277 0.265454
1011.75 1.35329e-08 1.00276 0.262079
1011.79 1.35886e-08 1.00277 0.259019
1011.77 1.35536e-08 1.00276 0.260133
1011.72 1.34931e-08 1.00276 0.255903
1011.24 1.19227e-08 1.00267 0.268818
1012.05 1.37437e-08 1.00281 0.267605
1011.87 1.36754e-08 1.00277 0.267294
1011.88 1.36837e-08 1.00277 0.266881
1011.75 1.35278e-08 1.00276 0.264756
1011.75 1.35271e-08 1.00276 0.262829
1011.76 1.35415e-08 1.00276 0.26091
1011.7 1.34661e-08 1.00275 0.259293
1011.1 1.18902e-08 1.00266 0.268403
1011.71 1.34801e-08 1.00276 0.256445
1011.99 1.37104e-08 1.0028 0.265437
1011.81 1.36102e-08 1.00277 0.258996
1011.74 1.35079e-08 1.00276 0.255395
1011.71 1.34876e-08 1.00276 0.254443
1012.04 1.3734e-08 1.0028 0.266692
1012.07 1.37663e-08 1.00281 0.268492
1011.88 1.37055e-08 1.00279 0.266027
1010.91 1.21986e-08 1.00263 0.26938
1000 0 1.00171 0.271603
1011.21 1.18096e-08 1.00267 0.270065
1010.88 1.20179e-08 1.00263 0.268995
1011.9 1.36852e-08 1.00278 0.264984
1010.99 1.17499e-08 1.00265 0.26881
1011.97 1.36634e-08 1.0028 0.265808
1011.93 1.36611e-08 1.00279 0.265171
1011.82 1.36174e-08 1.00277 0.259953
1011.16 1.18053e-08 1.00266 0.269176
1011.34 1.18691e-08 1.00268 0.270222
1012.06 1.37285e-08 1.00281 0.268555
1011.92 1.36878e-08 1.00278 0.265315
1011.93 1.36707e-08 1.00278 0.264836
1011.76 1.35403e-08 1.00276 0.259556
1012 1.36826e-08 1.0028 0.266447
1011.8 1.35927e-08 1.00277 0.259024
1011.84 1.36438e-08 1.00278 0.261801
1011.76 1.35368e-08 1.00277 0.25655
1011.43 1.18857e-08 1.00269 0.270313
1012.04 1.37105e-08 1.0028 0.267594
1012.08 1.37446e-08 1.00281 0.269456
1011.89 1.37264e-08 1.00279 0.267048
1011.75 1.3522e-08 1.00276 0.260346
1011.78 1.35658e-08 1.00277 0.258991
1011.71 1.34691e-08 1.00275 0.25564
1011.86 1.36702e-08 1.00278 0.263766
1011.73 1.35026e-08 1.00276 0.254012
1011.77 1.35515e-08 1.00277 0.257712
1011.75 1.35244e-08 1.00277 0.255082
1012.09 1.37788e-08 1.00281 0.271185
1011.6 1.19577e-08 1.0027 0.270413
1000 0 1.00171 0.271837
1000 0 1.00171 0.271811
1000 0 1.00171 0.27178
1011.38 1.19444e-08 1.00269 0.269941
1000 0 1.00171 0.271491
1011.33 1.19367e-08 1.00268 0.269387
1000 0 1.00171 0.271143
1010.9 1.22364e-08 1.00263 0.269654
1010.85 1.2229e-08 1.00262 0.269997
1011.89 1.36915e-08 1.00278 0.266353
1011.87 1.36826e-08 1.00277 0.267082
1010.79 1.21833e-08 1.00261 0.270072
1000 0 1.0017 0.27112
1010.41 1.21947e-08 1.00261 0.270061
1011.87 1.36733e-08 1.00277 0.267271
1011.88 1.36836e-08 1.00277 0.266795
1011.75 1.35239e-08 1.00276 0.264847
1011.91 1.36885e-08 1.00278 0.265842
1011.75 1.35263e-08 1.00276 0.263075
1011.86 1.36745e-08 1.00277 0.267338
1011.75 1.35205e-08 1.00275 0.265186
1011.75 1.35264e-08 1.00276 0.264237
1011.7 1.34632e-08 1.00275 0.262669
1011.75 1.35233e-08 1.00276 0.261614
1011.7 1.3465e-08 1.00275 0.260519
1010.76 1.21714e-08 1.00261 0.270046
1010.83 1.21981e-08 1.00243 0.269649
1011.87 1.36785e-08 1.00277 0.266965
1011.88 1.3686e-08 1.00278 0.266546
1000 0 1.00171 0.270776
1011.04 1.19122e-08 1.00246 0.268409
1011.96 1.36931e-08 1.0028 0.264551
1011.89 1.36854e-08 1.00278 0.265382
1011.75 1.35326e-08 1.00276 0.261814
1011.77 1.35532e-08 1.00277 0.260259
1011.79 1.3588e-08 1.00277 0.258964
1011.72 1.34931e-08 1.00276 0.255962
1011.16 1.1887e-08 1.00267 0.268676
1012.06 1.3749e-08 1.00281 0.267587
1011.87 1.36716e-08 1.00277 0.267226
1011.88 1.36798e-08 1.00277 0.266879
1011.75 1.35276e-08 1.00276 0.264669
1011.75 1.35273e-08 1.00276 0.263054
1011.13 1.19294e-08 1.00266 0.268386
1011.99 1.37056e-08 1.0028 0.265175
1011.81 1.36114e-08 1.00277 0.259105
1011.76 1.35418e-08 1.00276 0.261052
1011.7 1.34656e-08 1.00275 0.258994
1011.74 1.35082e-08 1.00276 0.255098
1011.71 1.34799e-08 1.00276 0.256463
1011.71 1.34871e-08 1.00276 0.254271
1012.03 1.37321e-08 1.0028 0.266922
1011.88 1.37091e-08 1.00279 0.266153
1012.07 1.37628e-08 1.00281 0.268322
1011.75 1.35229e-08 1.00276 0.265261
1011.75 1.35269e-08 1.00276 0.263895
1011.7 1.34683e-08 1.00275 0.262833
1011.7 1.34612e-08 1.00275 0.26
1011.7 1.34693e-08 1.00275 0.257231
1011.69 1.34583e-08 1.00275 0.256479
1012.02 1.37227e-08 1.0028 0.266104
1011.7 1.34742e-08 1.00275 0.254286
1011.83 1.36385e-08 1.00278 0.261024
1011.75 1.35208e-08 1.00277 0.253577
1011.73 1.35023e-08 1.00276 0.25303
1011.7 1.34686e-08 1.00275 0.252599
1012.08 1.3778e-08 1.00281 0.269503
1011.87 1.36891e-08 1.00279 0.265186
1011.89 1.37222e-08 1.00279 0.267195
1011.84 1.36315e-08 1.00279 0.264881
1011.9 1.36921e-08 1.00278 0.265315
1011.32 1.18489e-08 1.00268 0.270358
1011.08 1.17741e-08 1.00266 0.269407
1012.07 1.37316e-08 1.00281 0.268688
1011.91 1.36741e-08 1.00278 0.264928
1011.76 1.35395e-08 1.00276 0.259552
1012 1.36856e-08 1.0028 0.26661
1011.84 1.3642e-08 1.00278 0.261801
1011.8 1.35918e-08 1.00277 0.259198
1011.76 1.35366e-08 1.00277 0.256045
1011.43 1.19032e-08 1.00269 0.270403
1012.03 1.37079e-08 1.0028 0.267574
1012.08 1.37431e-08 1.00281 0.269669
1011.9 1.37279e-08 1.00279 0.267167
1011.75 1.35225e-08 1.00276 0.260353
1011.78 1.35668e-08 1.00277 0.259002
1011.71 1.34689e-08 1.00275 0.255643
1011.86 1.36722e-08 1.00278 0.264069
1011.73 1.35033e-08 1.00276 0.254404
1011.78 1.3552e-08 1.00277 0.25738
1011.75 1.35253e-08 1.00277 0.255384
1011.51 1.1919e-08 1.0027 0.27041
1012.09 1.37551e-08 1.00281 0.270528
1011.88 1.37014e-08 1.00279 0.265894
1011.9 1.37415e-08 1.00279 0.268063
1011.86 1.3651e-08 1.00279 0.265871
1011.7 1.34719e-08 1.00275 0.256522
1011.72 1.34718e-08 1.00276 0.25435
1011.71 1.35779e-08 1.00275 0.252779
1011.8 1.35792e-08 1.00278 0.259051
1011.73 1.35231e-08 1.00276 0.251025
1011.76 1.35342e-08 1.00277 0.254462
1012.09 1.37679e-08 1.00281 0.271199
1011.88 1.37417e-08 1.00279 0.270798
1012.09 1.37918e-08 1.00281 0.271177
1012.09 1.37776e-08 1.00281 0.271189
1011.68 1.1998e-08 1.0025 0.270746
1011.6 1.19716e-08 1.0026 0.270732
1000 0 1.00213 0.271073
1000 0 1.00171 0.271817
1000 0 1.00171 0.271797
1011.5 1.20015e-08 1.0027 0.270219
1000 0 1.00171 0.271694
1011.42 1.19719e-08 1.00269 0.269811
1000 0 1.00171 0.27139
1011.27 1.19042e-08 1.00268 0.269218
1000 0 1.00171 0.271042
1011.89 1.36932e-08 1.00278 0.265812
1011.88 1.36877e-08 1.00277 0.266775
1011.75 1.3526e-08 1.00276 0.263102
1011.75 1.35239e-08 1.00276 0.264841
1011.87 1.36771e-08 1.00277 0.267263
1010.76 1.21646e-08 1.00261 0.27004
1011.9 1.36703e-08 1.00277 0.267338
1011.75 1.35203e-08 1.00275 0.26518
1011.75 1.35266e-08 1.00276 0.264166
1011.7 1.3463e-08 1.00275 0.262577
1011.75 1.35239e-08 1.00276 0.261615
1011.7 1.34647e-08 1.00275 0.260513
1011.75 1.35199e-08 1.00275 0.265282
1011.7 1.34549e-08 1.00275 0.263353
1011.7 1.34601e-08 1.00275 0.261934
1011.7 1.35326e-08 1.00275 0.261724
1011.7 1.34614e-08 1.00275 0.258051
1011.69 1.3473e-08 1.00275 0.257732
1011.87 1.36754e-08 1.00277 0.267165
1011.88 1.36837e-08 1.00277 0.266911
1011.75 1.35278e-08 1.00276 0.264533
1011.75 1.35271e-08 1.00276 0.263303
1011.1 1.18902e-08 1.00266 0.268368
1011.99 1.37104e-08 1.0028 0.264906
1011.81 1.36102e-08 1.00277 0.259219
1011.76 1.35415e-08 1.00276 0.261203
1011.7 1.34661e-08 1.00275 0.258697
1011.71 1.34801e-08 1.00276 0.25648
1011.74 1.35079e-08 1.00276 0.254851
1011.71 1.34876e-08 1.00276 0.254154
1012.04 1.3734e-08 1.0028 0.267147
1011.88 1.37055e-08 1.00279 0.266306
1012.07 1.37663e-08 1.00281 0.268241
1011.75 1.35227e-08 1.00276 0.265201
1011.75 1.35271e-08 1.00276 0.26389
1011.7 1.3468e-08 1.00275 0.262617
1011.7 1.34608e-08 1.00275 0.260236
1012.01 1.37182e-08 1.0028 0.265998
1011.83 1.36398e-08 1.00278 0.260895
1011.75 1.3521e-08 1.00277 0.253872
1011.7 1.3469e-08 1.00275 0.257491
1011.69 1.34581e-08 1.00275 0.256296
1011.73 1.35022e-08 1.00276 0.25276
1011.7 1.3474e-08 1.00275 0.254302
1011.7 1.34684e-08 1.00275 0.252875
1011.87 1.36908e-08 1.00279 0.264939
1011.84 1.36313e-08 1.00278 0.264772
1012.08 1.3776e-08 1.00281 0.26941
1011.89 1.37231e-08 1.00279 0.267598
1011.7 1.34659e-08 1.00275 0.263362
1011.7 1.34557e-08 1.00275 0.261484
1011.69 1.34724e-08 1.00275 0.261775
1011.69 1.34674e-08 1.00275 0.257081
1011.7 1.34765e-08 1.00275 0.255134
1011.69 1.34479e-08 1.00275 0.25507
1011.85 1.36646e-08 1.00278 0.263674
1011.69 1.34643e-08 1.00275 0.252148
1011.77 1.35451e-08 1.00277 0.254862
1011.74 1.35171e-08 1.00276 0.250311
1011.72 1.35048e-08 1.00276 0.251561
1011.68 1.3375e-08 1.00275 0.252052
1012.09 1.37941e-08 1.00281 0.270198
1011.89 1.37296e-08 1.00279 0.268168
1011.82 1.36085e-08 1.00278 0.262765
1011.86 1.36547e-08 1.00279 0.265957
1011.83 1.36213e-08 1.00278 0.262903
1011.43 1.18857e-08 1.00269 0.270502
1011.75 1.3522e-08 1.00276 0.26037
1012.08 1.37446e-08 1.00281 0.269899
1012.04 1.37105e-08 1.0028 0.267493
1011.89 1.37264e-08 1.00279 0.26726
1011.78 1.35658e-08 1.00277 0.259001
1011.71 1.34691e-08 1.00275 0.255644
1011.86 1.36702e-08 1.00278 0.264363
1011.77 1.35515e-08 1.00277 0.256869
1011.73 1.35026e-08 1.00276 0.2548
1011.75 1.35244e-08 1.00277 0.255531
1011.52 1.19329e-08 1.0027 0.270455
1012.08 1.37537e-08 1.00281 0.27062
1011.88 1.37021e-08 1.00279 0.266028
1011.9 1.37425e-08 1.00279 0.268354
1011.86 1.36518e-08 1.00279 0.265744
1011.7 1.34728e-08 1.00275 0.256465
1011.72 1.34715e-08 1.00276 0.254345
1011.71 1.35787e-08 1.00275 0.252724
1011.8 1.35805e-08 1.00278 0.259242
1011.73 1.35222e-08 1.00276 0.25138
1011.76 1.35349e-08 1.00277 0.254332
1012.09 1.37605e-08 1.00281 0.271035
1011.9 1.37477e-08 1.00279 0.269126
1011.83 1.36165e-08 1.00278 0.26271
1011.88 1.36779e-08 1.00279 0.266991
1011.85 1.36448e-08 1.00279 0.263944
1011.7 1.35739e-08 1.00275 0.254565
1011.72 1.35535e-08 1.00276 0.250906
1011.59 1.29177e-08 1.00275 0.249978
1011.78 1.35625e-08 1.00278 0.254453
1011.75 1.36226e-08 1.00276 0.25065
1012.08 1.37667e-08 1.00281 0.271225
1011.89 1.3742e-08 1.00279 0.270754
1011.89 1.3743e-08 1.00279 0.270753
1011.89 1.36905e-08 1.00279 0.26976
1011.88 1.37435e-08 1.00279 0.270746
1012.09 1.38068e-08 1.00281 0.271201
1012.09 1.37903e-08 1.00281 0.271173
1011.76 1.20508e-08 1.0025 0.270744
1012.09 1.37788e-08 1.00281 0.271192
1011.68 1.20101e-08 1.0025 0.27094
1000 0 1.00213 0.271014
1011.6 1.19577e-08 1.00249 0.270928
1000 0 1.00192 0.271179
1000 0 1.00171 0.271791
1011.62 1.20548e-08 1.0027 0.270475
1011.53 1.20189e-08 1.0027 0.270075
1000 0 1.00171 0.271778
1000 0 1.00171 0.271572
1011.38 1.19444e-08 1.00269 0.269646
1000 0 1.00171 0.271272
1011.75 1.35233e-08 1.00276 0.261611
1011.75 1.35264e-08 1.00276 0.264144
1011.7 1.3465e-08 1.00275 0.260516
1011.7 1.34632e-08 1.00275 0.262483
1011.75 1.35205e-08 1.00275 0.265174
1011.86 1.36745e-08 1.00277 0.267331
1011.75 1.35197e-08 1.00275 0.265286
1011.7 1.34546e-08 1.00275 0.263393
1011.7 1.34596e-08 1.00275 0.261905
1011.7 1.35323e-08 1.00275 0.261602
1011.7 1.34608e-08 1.00275 0.258008
1011.69 1.34726e-08 1.00275 0.257894
1011.7 1.34473e-08 1.00275 0.263614
1011.72 1.36309e-08 1.00275 0.26258
1011.7 1.35461e-08 1.00275 0.259988
1011.66 1.33966e-08 1.00275 0.260866
1011.7 1.3523e-08 1.00275 0.25658
1011.7 1.35101e-08 1.00275 0.256614
1011.75 1.35229e-08 1.00276 0.265149
1011.75 1.35269e-08 1.00276 0.263812
1011.7 1.34683e-08 1.00275 0.262422
1011.7 1.34612e-08 1.00275 0.260471
1012.02 1.37227e-08 1.0028 0.265895
1011.83 1.36385e-08 1.00278 0.260798
1011.75 1.35208e-08 1.00277 0.254145
1011.7 1.34693e-08 1.00275 0.257745
1011.69 1.34583e-08 1.00275 0.256132
1011.7 1.34742e-08 1.00275 0.25432
1011.73 1.35023e-08 1.00276 0.252378
1011.7 1.34686e-08 1.00275 0.253006
1011.87 1.36891e-08 1.00279 0.264722
1011.84 1.36315e-08 1.00278 0.26473
1012.08 1.3778e-08 1.00281 0.269285
1011.89 1.37222e-08 1.00279 0.267687
1011.7 1.34657e-08 1.00275 0.263368
1011.69 1.34554e-08 1.00275 0.261467
1011.69 1.34723e-08 1.00275 0.261705
1011.69 1.34675e-08 1.00275 0.257298
1011.85 1.36665e-08 1.00278 0.263478
1011.77 1.35464e-08 1.00277 0.255279
1011.74 1.35162e-08 1.00276 0.250058
1011.7 1.34761e-08 1.00275 0.255314
1011.68 1.3448e-08 1.00275 0.254972
1011.72 1.35044e-08 1.00276 0.251271
1011.69 1.34638e-08 1.00275 0.252149
1011.67 1.33734e-08 1.00275 0.252212
1011.82 1.36099e-08 1.00278 0.262663
1011.83 1.36214e-08 1.00278 0.262619
1011.86 1.36518e-08 1.00279 0.266113
1012.08 1.37923e-08 1.00281 0.270122
1011.89 1.37299e-08 1.00279 0.268113
1011.71 1.3603e-08 1.00275 0.262372
1011.7 1.35071e-08 1.00275 0.260073
1011.67 1.34109e-08 1.00275 0.254774
1011.67 1.3388e-08 1.00275 0.253543
1011.8 1.35809e-08 1.00278 0.25948
1011.67 1.33385e-08 1.00275 0.249044
1011.76 1.35409e-08 1.00277 0.25074
1011.73 1.35676e-08 1.00276 0.247028
1011.66 1.32701e-08 1.00275 0.250462
1012.09 1.38077e-08 1.00281 0.270601
1011.88 1.37325e-08 1.00279 0.268649
1011.88 1.36701e-08 1.00279 0.267315
1011.81 1.36038e-08 1.00278 0.259979
1011.86 1.365e-08 1.00279 0.264153
1011.82 1.36192e-08 1.00278 0.260162
1011.51 1.1919e-08 1.0027 0.270478
1012.09 1.37551e-08 1.00281 0.270694
1011.7 1.34719e-08 1.00275 0.256406
1011.9 1.37415e-08 1.00279 0.26864
1011.88 1.37014e-08 1.00279 0.266192
1011.86 1.3651e-08 1.00279 0.265617
1011.72 1.34718e-08 1.00276 0.254345
1011.71 1.35779e-08 1.00275 0.25268
1011.8 1.35792e-08 1.00278 0.259473
1011.76 1.35342e-08 1.00277 0.254356
1011.73 1.35231e-08 1.00276 0.25172
1012.08 1.37588e-08 1.00281 0.27108
1011.9 1.37484e-08 1.00279 0.269345
1011.83 1.36165e-08 1.00278 0.262904
1011.88 1.36788e-08 1.00279 0.267105
1011.85 1.36491e-08 1.00279 0.263688
1011.7 1.35686e-08 1.00275 0.254519
1011.72 1.35567e-08 1.00276 0.250936
1011.59 1.29124e-08 1.00275 0.24994
1011.78 1.35635e-08 1.00277 0.254232
1011.75 1.36256e-08 1.00276 0.250376
1011.89 1.37456e-08 1.00279 0.270237
1011.89 1.36878e-08 1.00279 0.26774