# vtk DataFile Version 2.0
Wound Healing Simulation
ASCII
DATASET UNSTRUCTURED_GRID
POINTS 3012 float
69.9759 18.75 4
67.2507 60.3285 4
69.976 18.75 2
73.0099 25.446 4
71.1327 20.9142 4
68.6801 16.6661 4
67.8192 19.9238 3.96995
67.2507 60.3286 2
71.1327 54.0858 4
68.6801 58.3339 4
65.6939 62.2254 4
65.3061 58.9994 3.96905
74.6784 42.3946 4
73.7221 47.2057 4
69.9759 18.75 0
73.0099 25.446 2
68.6801 16.6661 2
71.1327 20.9142 2
67.8195 19.9277 2
74.6792 32.6053 4
73.7222 27.7943 4
72.1454 23.1494 4
70.6103 26.2211 3.97081
68.8802 21.956 3.9704
67.2507 14.6715 4
66.63 17.9709 3.96906
65.6962 21.058 3.96043
67.2507 60.3285 0
71.1327 54.0858 2
68.6801 58.3339 2
65.694 62.2255 2
65.3077 58.9935 2
72.1454 51.8506 4
69.9759 56.25 4
68.8309 53.1149 3.97041
64.0165 64.0165 4
66.6041 57.1339 3.96983
63.8788 60.7613 3.96556
63.4224 57.737 3.95721
60.3285 67.2507 4
74.6792 42.3947 2
73.7222 47.2057 2
74.9194 39.9526 4
74.2788 44.8158 4
72.1654 42.086 3.97342
73.0099 49.554 4
71.2458 46.5985 3.97178
73.0099 25.446 0
71.1327 20.9142 0
68.6801 16.6661 0
67.8192 19.9238 0.030046
74.6792 32.6053 2
73.7222 27.7943 2
67.2508 14.6715 2
72.1455 23.1494 2
70.6095 26.2223 2
66.631 17.9752 2
68.88 21.9588 2
65.6972 21.0586 2
74.9197 35.0474 4
74.2794 30.1841 4
72.1821 32.9447 3.97342
71.275 28.4324 3.97152
69.8109 24.0586 3.9705
68.2813 26.9704 3.96393
66.6732 22.961 3.96219
65.694 12.7746 4
65.3169 16.1043 3.96854
64.6073 19.2316 3.95838
63.6367 22.1313 3.96595
71.1327 54.0858 0
65.6939 62.2254 0
68.6801 58.3339 0
65.3061 58.9994 0.030947
72.1455 51.8506 2
69.9759 56.25 2
68.831 53.1113 2
64.0165 64.0165 2
66.6055 57.1283 2
63.8802 60.7546 2
63.4144 57.7366 2
62.2254 65.694 4
58.8885 65.4078 3.97286
69.7641 50.9902 3.97056
67.7776 55.1689 3.9702
66.552 52.1799 3.96293
62.3291 62.4223 3.96605
64.5634 55.9968 3.95944
62.1758 59.3749 3.953
61.6134 56.5806 3.9612
58.3339 68.6801 4
60.3285 67.2508 2
73.7221 47.2057 0
74.6784 42.3946 0
74.9197 39.9526 2
74.2794 44.8159 2
72.1642 42.0848 2
73.0099 49.554 2
71.245 46.5967 2
75 37.5 4
72.4027 39.8028 3.97429
71.7793 44.3532 3.97279
69.7734 41.7857 3.96754
70.5711 48.8143 3.97113
68.8516 46.0012 3.96623
74.6792 32.6053 0
73.7222 27.7943 0
67.2507 14.6715 0
72.1454 23.1494 0
70.6103 26.2211 0.0291874
68.8802 21.956 0.0295969
66.63 17.9709 0.0309378
65.6962 21.058 0.0395726
74.9197 35.0474 2
74.2794 30.1841 2
72.1807 32.9448 2
71.2739 28.4332 2
65.694 12.7745 2
65.3172 16.1099 2
69.8103 24.0605 2
68.2844 26.971 2
64.6005 19.2332 2
66.6754 22.9618 2
63.6369 22.1315 2
72.4106 35.2253 3.97424
71.801 30.6777 3.97284
69.8093 33.2763 3.96663
68.9134 29.0531 3.96479
67.535 24.935 3.96335
65.9487 27.7016 3.97442
64.0165 10.9835 4
64.4972 23.9188 3.96904
63.8817 14.3313 3.96502
63.4167 17.4852 3.95541
62.6634 20.4238 3.96289
61.688 23.1045 3.97271
60.6783 11.1053 3.97204
57.6016 11.5017 3.96333
72.1454 51.8506 0
69.9759 56.25 0
68.8309 53.1149 0.0295872
64.0165 64.0165 0
63.8788 60.7613 0.0344394
66.6041 57.1339 0.0301704
63.4224 57.737 0.0427943
62.2255 65.694 2
58.8923 65.4017 2
69.7639 50.9876 2
67.7783 55.1641 2
66.5532 52.179 2
62.3313 62.4131 2
64.5571 55.9955 2
62.1645 59.3742 2
61.6175 56.5819 2
60.6622 63.9717 3.97204
57.0201 66.7308 3.97709
57.5409 63.6393 3.96711
67.4175 50.1519 3.96414
65.6017 54.1407 3.9611
64.2563 51.2933 3.97
60.7595 60.8994 3.95991
62.5828 54.9693 3.96506
60.4652 58.052 3.95599
60.0053 55.6297 3.96719
56.25 69.9759 4
58.3339 68.6801 2
60.3285 67.2507 0
58.9175 9.66407 3.97188
62.2254 9.30607 4
73.0099 49.554 0
74.2788 44.8158 0
71.2458 46.5985 0.0282218
72.1654 42.086 0.0265845
74.9194 39.9526 0
75 37.5 2
72.402 39.802 2
71.7787 44.3516 2
69.7755 41.7853 2
70.5706 48.8123 2
68.8554 46.0006 2
72.4862 37.5129 3.97413
70.0181 39.6567 3.96752
69.3893 43.8995 3.96728
67.3592 41.4738 3.97662
68.1874 48.0875 3.96496
66.4429 45.3856 3.97643
74.9197 35.0474 0
74.2794 30.1841 0
72.1821 32.9447 0.0265753
71.275 28.4324 0.0284751
65.694 12.7746 0
65.3169 16.1043 0.031461
69.8109 24.0586 0.0295034
68.2813 26.9704 0.0360717
66.6732 22.961 0.0378109
64.6073 19.2316 0.0416164
63.6367 22.1313 0.0340476
72.4098 35.225 2
71.8002 30.6783 2
69.8125 33.2766 2
68.9179 29.0534 2
64.0165 10.9835 2
63.8833 14.3382 2
63.4249 17.4818 2
67.5378 24.9357 2
65.9462 27.7027 2
62.669 20.4223 2
64.4961 23.9195 2
61.688 23.1054 2
60.6808 11.1106 2
57.5989 11.4909 2
70.033 35.3969 3.96699
69.4273 31.1606 3.96564
67.4273 33.6191 3.9766
66.5297 29.6778 3.97572
65.2699 25.7775 3.97231
63.7006 28.3718 3.97531
62.3337 12.6611 3.96653
62.4344 24.7895 3.97448
62.1675 15.8142 3.95381
61.5721 18.7977 3.95932
60.8298 21.5127 3.96906
59.8857 23.9523 3.97403
59.2345 12.8273 3.96343
55.8686 10.2764 3.97138
56.3762 13.2061 3.96256
69.7641 50.9902 0.0294385
62.2254 65.694 0
58.8885 65.4078 0.0271368
67.7776 55.1689 0.0298017
66.552 52.1799 0.0370724
62.3291 62.4223 0.0339513
62.1758 59.3749 0.0470004
64.5634 55.9968 0.0405559
61.6134 56.5806 0.0388002
60.6663 63.9646 2
57.0241 66.7253 2
57.545 63.6479 2
67.419 50.1509 2
65.6007 54.1398 2
64.2548 51.2925 2
60.7508 60.9006 2
62.5858 54.9703 2
60.459 58.0507 2
60.0036 55.6294 2
55.0656 67.9291 3.98167
59.2103 62.3154 3.96863
55.7874 64.8582 3.96981
56.3071 62.0069 3.98114
65.048 49.3261 3.97308
63.4368 53.1941 3.96728
61.9725 50.492 3.97377
59.2214 59.4648 3.95356
60.7005 54.1495 3.97149
58.9397 56.8359 3.96042
58.8179 54.9854 3.97119
48.0971 68.5669 3.97851
50.9439 69.9301 3.9856
54.0858 71.1327 4
56.25 69.976 2
58.3339 68.6801 0
57.0559 8.33677 3.97979
60.3285 7.74928 4
58.9196 9.66934 2
62.2255 9.30602 2
70.5711 48.8143 0.0288721
71.7793 44.3532 0.0272104
68.8516 46.0012 0.0337738
69.7734 41.7857 0.032461
72.4027 39.8028 0.0257138
75 37.5 0
72.4849 37.5124 2
70.0209 39.6565 2
69.3909 43.8989 2
67.3564 41.4732 2
68.1881 48.0864 2
66.4391 45.3843 2
70.106 37.5238 3.96734
67.607 39.503 3.97655
66.9705 43.4311 3.97659
65.1399 41.1743 3.97634
65.7915 47.3491 3.9751
64.1941 44.7665 3.97579
72.4106 35.2253 0.0257623
71.801 30.6777 0.0271556
69.8093 33.2763 0.0333659
68.9134 29.0531 0.0352097
64.0165 10.9835 0
63.8817 14.3313 0.0349782
63.4167 17.4852 0.0445861
67.535 24.935 0.0366474
65.9487 27.7016 0.0255762
64.4972 23.9188 0.0309571
62.6634 20.4238 0.0371078
61.688 23.1045 0.0272938
60.6783 11.1053 0.0279563
57.6016 11.5017 0.0366705
70.0358 35.3971 2
69.4306 31.1609 2
67.425 33.6196 2
66.5265 29.679 2
62.3361 12.6683 2
62.167 15.8143 2
61.5823 18.795 2
65.268 25.7785 2
63.6993 28.3721 2
60.8297 21.5137 2
62.4339 24.7903 2
59.884 23.9541 2
59.2331 12.8247 2
56.3709 13.1965 2
55.8683 10.2823 2
67.6494 35.5635 3.97667
67.0296 31.6643 3.97652
65.2978 33.9688 3.97651
64.2204 30.2846 3.97565
63.1033 26.5532 3.97468
61.6506 28.9362 3.97509
60.7566 14.2619 3.95699
60.4741 25.5509 3.97436
60.4162 17.2393 3.95521
59.8302 20.0028 3.96406
59.1344 22.494 3.9717
58.3243 24.6013 3.97413
54.0372 9.15544 3.98806
57.8493 14.4225 3.95174
54.7745 12.103 3.97489
55.2315 14.778 3.95112
67.4175 50.1519 0.0358594
57.0201 66.7308 0.0229114
60.6622 63.9717 0.0279585
57.5409 63.6393 0.0328921
65.6017 54.1407 0.0389029
64.2563 51.2933 0.030001
60.7595 60.8994 0.0400891
60.4652 58.052 0.0440072
62.5828 54.9693 0.0349377
60.0053 55.6297 0.0328093
55.0703 67.9238 2
59.2075 62.3214 2
55.7916 64.8532 2
56.3039 62.0093 2
65.0458 49.325 2
63.4367 53.194 2
61.9716 50.4917 2
59.2473 59.4739 2
60.6994 54.1493 2
58.947 56.8381 2
58.8268 54.9875 2
53.0375 68.9963 3.98236
53.9547 65.9853 3.97032
57.8385 60.7957 3.95384
54.6562 63.1093 3.96511
55.1657 60.5188 3.97634
62.7128 48.5174 3.97406
61.312 52.4121 3.9731
59.6258 49.7913 3.97293
57.7816 58.1121 3.95661
58.8424 53.7359 3.97244
57.6261 55.58 3.96318
50.1025 67.845 3.97448
47.4526 66.5592 3.97448
46.0519 69.1483 3.98106
48.1012 68.5681 2
48.7979 70.721 3.98744
50.9489 69.9266 2
51.8506 72.1454 4
54.0858 71.1327 2
56.25 69.9759 0
55.1011 7.14037 3.99252
58.3339 6.31992 4
57.0591 8.34282 2
60.3286 7.74926 2
58.9175 9.66407 0.0281212
62.2254 9.30607 0
68.1874 48.0875 0.0350438
69.3893 43.8995 0.0327197
66.4429 45.3856 0.0235675
67.3592 41.4738 0.0233791
70.0181 39.6567 0.032476
72.4862 37.5129 0.0258749
70.1097 37.5237 2
67.6041 39.5027 2
66.9683 43.4299 2
65.1395 41.1742 2
65.7889 47.3479 2
64.1934 44.7663 2
67.7103 37.5258 3.97651
65.3819 39.3541 3.97648
64.7443 42.9656 3.97617
63.1911 40.88 3.9763
63.4843 46.6027 3.97491
62.1841 44.1082 3.9757
70.033 35.3969 0.0330089
69.4273 31.1606 0.0343647
67.4273 33.6191 0.0233965
66.5297 29.6778 0.0242826
62.3337 12.6611 0.0334743
62.1675 15.8142 0.0461946
61.5721 18.7977 0.0406828
65.2699 25.7775 0.0276889
63.7006 28.3718 0.0246904
62.4344 24.7895 0.0255248
60.8298 21.5127 0.0309435
59.8857 23.9523 0.0259677
59.2345 12.8273 0.0365744
56.3762 13.2061 0.0374436
55.8686 10.2764 0.0286187
67.6471 35.5639 2
67.0273 31.6653 2
65.2964 33.9689 2
64.2198 30.2848 2
60.7539 14.2616 2
60.4089 17.2403 2
59.8294 20.0039 2
63.102 26.5541 2
61.6505 28.9361 2
59.1348 22.4953 2
60.4736 25.5512 2
58.3199 24.6036 2
57.8478 14.4129 2
55.2205 14.7611 2
54.0413 9.15031 2
54.7639 12.0963 2
65.4806 35.6909 3.97653
64.7573 32.2178 3.97588
63.7724 34.2998 3.97609
61.9761 30.7598 3.9754
61.0551 27.2549 3.97464
60.1205 29.33 3.97552
59.1817 15.7703 3.95407
58.6203 26.0613 3.97471
58.7704 18.5447 3.96017
58.2201 21.1038 3.96622
57.6543 23.3815 3.97199
57.2472 24.9777 3.97524
52.1022 8.18343 3.96838
53.0586 11.0607 3.97514
56.5335 15.8918 3.95608
53.7667 13.7908 3.96524
54.2184 16.1652 3.95653
55.0656 67.9291 0.0183343
65.048 49.3261 0.026918
55.7874 64.8582 0.0301919
59.2103 62.3154 0.0313737
56.3071 62.0069 0.0188581
63.4368 53.1941 0.0327246
61.9725 50.492 0.0262285
59.2214 59.4648 0.0464408
58.9397 56.8359 0.0395754
60.7005 54.1495 0.0285052
58.8179 54.9854 0.0288122
53.0427 68.993 2
53.9589 65.985 2
57.8394 60.8032 2
54.6542 63.1089 2
55.163 60.517 2
62.7122 48.5169 2
61.3115 52.4119 2
59.6261 49.7911 2
57.7886 58.1162 2
58.8467 53.7364 2
57.6231 55.5786 2
52.061 66.9808 3.97327
52.93 64.147 3.96835
56.5199 59.3659 3.95165
53.6227 61.4817 3.96556
[...]
POINT_DATA 3012
SCALARS Jp_lamdaP float 4
LOOKUP_TABLE default
0.999355 1 1 0.999355
1 1 1 1
0.999375 1 1 0.999375
0.999299 1 1 0.999299
0.999358 1 1 0.999358
0.999322 1 1 0.999322
1.0177 1.01958 1 0.998155
1 1 1 1
1 1 1 1
1 1 1 1
0.999387 1 1 0.999387
1.01332 1.01525 1 0.998101
0.999367 1 1 0.999367
0.99934 1 1 0.99934
0.999385 1 1 0.999385
0.999341 1 1 0.999341
0.999335 1 1 0.999335
0.999389 1 1 0.999389
1.01755 1.01944 1 0.99815
1 1 1 1
0.999293 1 1 0.999293
0.999332 1 1 0.999332
1.01007 1.01202 1 0.998082
1.01533 1.0172 1 0.998156
0.999304 1 1 0.999304
1.01834 1.02025 1 0.998125
1.05063 1.05442 1 0.9964
1 1 1 1
0.999683 1 1 0.999683
0.999693 1 1 0.999693
1 1 1 1
1.01112 1.01303 1 0.998109
0.999357 1 1 0.999357
0.999385 1 1 0.999385
1.0162 1.01784 1 0.998391
1 1 1 1
1.01733 1.01892 1 0.99844
1.00572 1.00759 1 0.998142
1.03543 1.03934 1 0.996241
1 1 1 1
1 1 1 1
0.999674 1 1 0.999674
1 1 1 1
0.999367 1 1 0.999367
1.00213 1.00414 1 0.997998
1 1 1 1
1.00768 1.00938 1 0.998317
0.999377 1 1 0.999377
0.999412 1 1 0.999412
0.99934 1 1 0.99934
1.01749 1.01937 1 0.99815
0.999658 1 1 0.999658
0.99933 1 1 0.99933
0.999318 1 1 0.999318
0.999371 1 1 0.999371
1.0098 1.01175 1 0.99807
1.0183 1.02021 1 0.998123
1.01511 1.01699 1 0.99815
1.05134 1.05515 1 0.996395
1 1 1 1
0.999318 1 1 0.999318
1.00294 1.00453 1 0.998423
1.00742 1.00936 1 0.998074
1.01249 1.0144 1 0.998122
1.04899 1.05289 1 0.996297
1.05142 1.05527 1 0.996353
0.99932 1 1 0.99932
1.00935 1.01122 1 0.998153
1.04954 1.05332 1 0.996408
1.07042 1.07514 1 0.995612
1 1 1 1
1 1 1 1
1 1 1 1
1.00895 1.01086 1 0.998116
1 1 1 1
1 1 1 1
1.01631 1.01829 1 0.998055
0.999747 1 1 0.999747
1.01636 1.01827 1 0.998123
1.00412 1.00543 1.00032 0.998377
1.0387 1.04262 1 0.996236
1 1 1 1
1.00411 1 1.00487 0.999243
1.01389 1.01595 1 0.997969
1.0171 1.01907 1 0.998073
1.05666 1.06091 1 0.995996
1.0015 1.00143 1.00129 0.99879
1.04778 1.05177 1 0.996203
1.02823 1.03152 1.00041 0.996393
1.06249 1.06727 1 0.995518
1 1 1 1
1 1 1 1
1 1 1 1
1 1 1 1
1 1 1 1
0.999685 1 1 0.999685
1.00289 1.0047 1 0.998199
0.999669 1 1 0.999669
1.00876 1.01063 1 0.998149
1 1 1 1
1.00115 1.0031 1 0.998053
1.00458 1.00625 1 0.998341
1.0478 1.05196 1 0.99604
1.01152 1.0132 1 0.998343
1.05457 1.0588 1 0.996006
0.999392 1 1 0.999392
0.999364 1 1 0.999364
0.999327 1 1 0.999327
0.999404 1 1 0.999404
1.00952 1.01148 1 0.998061
1.0149 1.01679 1 0.998147
1.01792 1.01983 1 0.998124
1.05238 1.05619 1 0.99639
1 1 1 1
0.999352 1 1 0.999352
1.00248 1.00439 1 0.998103
1.00708 1.00903 1 0.99806
0.999667 1 1 0.999667
1.01104 1.01276 1.00004 0.998267
1.01227 1.01418 1 0.998114
1.04943 1.05333 1 0.996293
1.04914 1.05293 1 0.996402
1.05233 1.05617 1 0.99636
1.06974 1.07444 1 0.995623
1.0018 1.00373 1 0.998075
1.00485 1.00676 1 0.998105
1.04452 1.04839 0.99992 0.996388
1.04671 1.05058 1 0.996315
1.05097 1.05485 1 0.996323
1.08374 1.08905 0.999261 0.995858
1 1 1 1
1.0755 1.08014 1 0.995701
1.00139 1.00257 1.00062 0.99821
1.04077 1.04471 1 0.996237
1.06641 1.07121 1 0.995519
1.07304 1.07781 0.999788 0.995786
1.00249 1 1.00374 0.998764
1.0107 1.00153 1.01186 0.997327
1 1 1 1
1 1 1 1
1.01668 1.01866 1 0.998058
1 1 1 1
1.00234 1.00335 1.00075 0.998246
1.01587 1.01777 1 0.99813
1.04159 1.04553 1 0.996229
1 1 1 1
1.00455 1 1.00529 0.999267
1.01473 1.0166 1 0.998167
1.01745 1.01923 1 0.998255
1.05568 1.05992 1 0.995993
1.00144 1.00101 1.00184 0.998587
1.04753 1.05152 1 0.996202
1.02837 1.03182 1.00028 0.996388
1.06188 1.06665 1 0.995535
1.00228 1 1.00336 0.998922
1.00569 1 1.0062 0.999497
1.01144 1.00276 1.01091 0.997764
1.05643 1.06072 1 0.995954
1.05487 1.059 1 0.996098
1.07958 1.08432 1 0.995625
1.02104 1.02227 1.00202 0.996787
1.06422 1.06884 1 0.99568
1.0503 1.05433 1.00067 0.995505
1.07073 1.07552 1 0.995546
1 1 1 1
1 1 1 1
1 1 1 1
1.00364 1 1.00464 0.999013
1 1 1 1
1 1 1 1
1 1 1 1
1.00962 1.01166 1 0.997989
1.00326 1.00523 1 0.998042
1 1 1 1
1 1 1 1
1.00135 1.0033 1 0.998053
1.00527 1.00711 1 0.998177
1.04743 1.05159 1 0.996041
1.01196 1.01401 1 0.997978
1.05273 1.05695 1 0.996004
1.00107 1.00302 1 0.99806
1.04518 1.04935 1 0.996026
1.05108 1.05526 1 0.996041
1.08311 1.09003 0.997602 0.996043
1.05569 1.05997 1 0.995965
1.08329 1.08961 0.998232 0.99596
1 1 1 1
0.999387 1 1 0.999387
1.00196 1.00423 1 0.997743
1.00675 1.00872 1 0.998047
1 1 1 1
1.01289 1.01453 1 0.998385
1.01206 1.01398 1 0.998109
1.04979 1.0537 1 0.996289
1.05333 1.05717 1 0.996367
1.04825 1.05204 1 0.996397
1.06848 1.07317 1 0.995633
1.00153 1.00346 1 0.998073
1.00458 1.0065 1 0.998091
1.0451 1.04916 0.99989 0.996234
1.04769 1.05158 1 0.996302
1 1 1 1
1.0039 1.00526 1.00029 0.998358
1.03843 1.04209 1.00013 0.99636
1.05147 1.05536 1 0.996313
1.08215 1.08814 0.998604 0.995892
1.06615 1.07095 1 0.995522
1.07554 1.08016 1 0.995725
1.07266 1.07744 0.999766 0.995794
1.00208 1.00004 1.0033 0.99875
1.00991 1.00273 1.00986 0.997323
1.04387 1.04802 1 0.996041
1.04584 1.04975 0.999919 0.996362
1.08271 1.08871 0.998484 0.996006
1.08252 1.08941 0.997706 0.995964
1.07873 1.08476 0.99859 0.995848
1.07745 1.08831 0.993815 0.996183
1.00105 1.00049 1.00208 0.998477
1.07436 1.08063 0.998185 0.996005
1.02968 1.03318 1.00018 0.996435
1.06382 1.06869 1 0.995445
1.07283 1.07764 1 0.995536
1.06938 1.07658 0.997145 0.996155
1.00966 1.00682 1.00589 0.996943
1.00971 1.00013 1.01182 0.99779
1.01189 1.00923 1.00616 0.996498
1.01519 1.01721 1 0.998009
1 1 1 1
1.00455 1 1.00526 0.999292
1.01734 1.01926 1 0.998111
1.05486 1.05911 1 0.995989
1.00148 1.0006 1.0023 0.998584
1.02952 1.03321 1.00005 0.996384
1.04691 1.05091 1 0.996201
1.06256 1.06731 1 0.995552
1.00273 1.00004 1.00375 0.998947
1.00484 1 1.00533 0.999515
1.00997 1.00126 1.01096 0.997764
1.05553 1.05982 1 0.995948
1.05338 1.05751 1 0.996097
1.07953 1.08428 1 0.995619
1.01712 1.01874 1.00163 0.996789
1.06546 1.07009 1 0.995671
1.0551 1.05924 1.00061 0.99549
1.07134 1.07611 1 0.995573
1.00371 1 1.00404 0.999667
1.01295 1.00956 1.00613 0.997252
1.01223 1.00001 1.01401 0.998234
1.01334 1.00971 1.00649 0.997128
1.08276 1.08803 0.999449 0.995707
1.07246 1.07717 1 0.99563
1.07713 1.08399 0.997852 0.995805
1.03345 1.03498 1.00271 0.995824
1.0677 1.07216 1 0.995844
1.06137 1.06465 1.00158 0.995344
1.08435 1.0891 1 0.995637
1.00131 1 1.00208 0.999227
1.00011 1 1.00025 0.99985
1 1 1 1
1 1 1 1
1 1 1 1
1.00421 1 1.00494 0.999279
1 1 1 1
1.00393 1 1.00494 0.998991
1 1 1 1
1.01294 1.01499 1 0.997979
1.00609 1.00809 1 0.998019
1.05137 1.05559 1 0.996003
1.0471 1.05126 1 0.996042
1.00159 1.00354 1 0.998055
1 1 1 1
1.00106 1.00301 1 0.99806
1.04522 1.04939 1 0.996027
1.05034 1.05451 1 0.99604
1.08298 1.08987 0.997626 0.996042
1.0546 1.05888 1 0.99596
1.08469 1.09093 0.998313 0.995958
1.0438 1.04797 1 0.996027
1.08273 1.08953 0.997725 0.996024
1.08372 1.09025 0.997977 0.996027
1.07236 1.08423 0.992608 0.996416
1.08344 1.08953 0.99856 0.995841
1.0759 1.08877 0.991863 0.996283
1.00134 1.00327 1 0.998072
1.0043 1.00624 1 0.998076
1.04567 1.04997 0.999829 0.996082
1.04872 1.05263 1 0.99629
1 1 1 1
1.00643 1.00783 1.0001 0.998512
1.03671 1.0402 1.00017 0.996481
1.05197 1.05587 1 0.996303
1.08067 1.08735 0.997921 0.995926
1.07543 1.08002 1 0.995748
1.06705 1.07184 1 0.995525
1.07264 1.07743 0.999751 0.995803
1.00198 1.00015 1.0031 0.998736
1.0108 1.00422 1.00926 0.997318
1.04414 1.04833 0.999946 0.996057
1.04651 1.05039 0.99995 0.996356
1.08197 1.08837 0.998078 0.996036
1.08252 1.08886 0.998237 0.995927
1.00101 1.00093 1.00162 0.998464
1.02873 1.03209 1.00031 0.996436
1.06595 1.07082 1 0.995454
1.07947 1.08487 0.999198 0.995818
1.07693 1.0886 0.993019 0.996238
1.07234 1.07713 1 0.995548
1.07408 1.08047 0.998076 0.996007
1.06974 1.07693 0.997172 0.996139
1.01216 1.00953 1.00568 0.996941
1.01282 1.0085 1.00782 0.996492
1.01175 1.00027 1.01372 0.997793
1.08259 1.08865 0.998427 0.995996
1.08272 1.08953 0.997715 0.996021
1.07252 1.08284 0.994108 0.996344
1.07545 1.08831 0.991877 0.996274
1.07434 1.08445 0.994488 0.996169
1.06786 1.08553 0.987132 0.99654
1.01493 1.01721 1.00108 0.99669
1.06563 1.07998 0.990332 0.996348
1.05644 1.06112 1 0.995588
1.06773 1.07286 1 0.995221
1.06754 1.07228 0.999898 0.995681
1.06069 1.07329 0.991802 0.996431
1.01491 1.00257 1.01421 0.998126
1.02037 1.02008 1.00413 0.996178
1.01293 1.00111 1.01496 0.996895
1.02067 1.01563 1.00893 0.996064
1.05471 1.05901 1 0.995942
1.0045 1 1.00497 0.999533
1.00319 1 1.00422 0.998973
1.01054 1.00038 1.01242 0.997764
1.05221 1.05633 1 0.996097
1.07938 1.08414 1 0.995613
1.01118 1.01319 1.00122 0.996791
1.05613 1.06046 1.00044 0.995475
1.06673 1.07138 1 0.995663
1.0699 1.07463 1 0.9956
1.00301 1 1.00333 0.999681
1.00984 1.00608 1.00648 0.997265
1.01344 1.0002 1.01503 0.998233
1.01156 1.00736 1.00706 0.997129
1.08264 1.08782 0.999534 0.995701
1.07315 1.07787 1 0.995626
1.07688 1.08372 0.997882 0.995804
1.03173 1.03324 1.00273 0.995822
1.06676 1.07126 0.999985 0.995813
1.05778 1.06091 1.00173 0.99533
1.08398 1.08861 1 0.995746
1.00106 1 1.00129 0.999773
1.01022 1 1.01165 0.998587
1.01714 1.01698 1.00368 0.996492
1.01683 1.00453 1.01479 0.997485
1.01108 1.01058 1.00359 0.996917
1.07691 1.08791 0.993916 0.995946
1.07278 1.07752 0.99982 0.995782
1.06793 1.08 0.992797 0.996
1.0296 1.03168 1.00253 0.995466
1.07149 1.07672 0.999198 0.995937
1.04916 1.05323 1.00086 0.995278
1.00241 1 1.00334 0.999071
1.00566 1 1.00718 0.998491
0.999492 1 1.00013 0.999358
1.00043 1 1.0012 0.999229
0.99991 1 1 0.99991
1.00004 1 1.00018 0.999861
0.999996 1 1 0.999996
1 1 1 1
1 1 1 1
1.00253 1 1.00297 0.999554
1 1 1 1
1.00434 1 1.00509 0.999257
1 1 1 1
1.0035 1 1.00454 0.99897
1 1 1 1
1.05318 1.05746 1 0.995954
1.04929 1.05347 1 0.99604
1.08567 1.09181 0.998416 0.995955
1.08277 1.08963 0.997652 0.996041
1.04522 1.04939 1 0.996028
1.00095 1.0029 1 0.998059
1.04398 1.04815 1 0.996027
1.08244 1.08925 0.997712 0.996025
1.08382 1.09038 0.997953 0.996026
1.07188 1.0844 0.991994 0.996433
1.08398 1.08992 0.998709 0.995837
1.07558 1.08837 0.991939 0.996283
1.08229 1.08884 0.997965 0.996012
1.07136 1.08404 0.991838 0.996441
1.0741 1.08587 0.992759 0.996376
1.07217 1.08816 0.988638 0.996633
1.07524 1.08908 0.991123 0.996131
1.07211 1.09206 0.985074 0.996604
1.04427 1.04851 0.999886 0.996073
1.04722 1.05106 1 0.996349
1.08128 1.08804 0.997713 0.996065
1.08239 1.08821 0.998762 0.99589
1.001 1.00142 1.00113 0.998452
1.02822 1.03142 1.00047 0.996439
1.06865 1.07352 1 0.995464
1.08023 1.08499 0.999831 0.995788
1.07638 1.08881 0.992256 0.996293
1.0738 1.0803 0.997958 0.996009
1.07149 1.07627 1 0.995559
1.06993 1.07716 0.997151 0.996123
1.01502 1.01266 1.00542 0.996938
1.0119 1.00794 1.00747 0.996487
1.01187 1.00039 1.01371 0.997795
1.08216 1.08826 0.998381 0.996009
1.082 1.08906 0.997489 0.996019
1.07213 1.08323 0.993338 0.996389
1.07589 1.08818 0.99243 0.996248
1.01978 1.02176 1.00138 0.996693
1.05584 1.0605 1.00001 0.995592
1.06788 1.07297 1.00003 0.995232
1.07484 1.08424 0.995195 0.996116
1.06762 1.08595 0.986494 0.996585
1.06819 1.07294 0.999925 0.995641
1.06614 1.0805 0.99033 0.996348
1.0609 1.07371 0.991563 0.99647
1.01989 1.02049 1.00325 0.99618
1.01717 1.01334 1.0078 0.996007
1.01242 1.00203 1.01226 0.998129
1.01077 1.00104 1.01281 0.996953
1.07205 1.08294 0.993526 0.996394
1.07503 1.08683 0.992812 0.996308
1.06717 1.08307 0.988729 0.99655
1.0654 1.08692 0.983527 0.996619
1.06579 1.0836 0.987015 0.996504
1.06903 1.09053 0.983487 0.996748
1.03667 1.04045 1.00052 0.995853
1.05755 1.07921 0.983163 0.996708
1.05217 1.05717 1 0.995272
1.06192 1.06694 1.00018 0.99512
1.06499 1.07072 0.998921 0.995722
1.06288 1.07789 0.989544 0.996499
1.01196 1.00285 1.01074 0.99837
1.02035 1.00817 1.01493 0.997199
1.02456 1.02599 1.00284 0.995773
1.01246 1.00508 1.01082 0.996565
1.01751 1.01054 1.01111 0.995835
1.00192 1 1.00222 0.999695
1.08252 1.08762 0.999616 0.995695
1.01273 1.00029 1.01423 0.998232
1.00761 1.00323 1.00711 0.997279
1.00917 1.00481 1.00723 0.997129
1.07378 1.0785 1 0.995623
1.0766 1.0834 0.997913 0.995803
1.03408 1.03664 1.00172 0.99582
1.05755 1.06047 1.00193 0.995316
1.06615 1.07069 0.99997 0.995783
1.08442 1.08893 1 0.995855
1.0005 1 1.00072 0.999783
1.01065 1 1.01207 0.998598
1.01578 1.01627 1.00302 0.996505
1.01668 1.0038 1.01539 0.997474
1.01201 1.01118 1.00402 0.996812
1.07694 1.08794 0.993917 0.995943
1.07241 1.07718 0.999791 0.995782
1.06717 1.07939 0.992659 0.995989
1.03049 1.03261 1.0025 0.995462
1.07582 1.08107 0.999234 0.995909
1.04941 1.05332 1.00096 0.99533
1.00502 1 1.00616 0.99887
1.01523 1.00148 1.01595 0.997822
1.00954 1.01219 1.00129 0.99609
1.02251 1.0123 1.01301 0.997102
1.01953 1.01995 1.00299 0.996607
1.07062 1.08851 0.987336 0.996182
1.06728 1.07383 0.997952 0.995938
1.05888 1.07443 0.989271 0.996217
1.00824 1.00904 1.00379 0.995431
1.04545 1.05036 0.999942 0.995377
1.00251 1 1.00344 0.999073
1.00507 1 1.00673 0.998355
1.00601 1 1.00755 0.99847
1.00567 1 1.00742 0.998268
1.00241 1 1.00381 0.998608
0.999437 1 1 0.999437
0.999702 1 1.00034 0.999362
0.999949 1 1 0.999949
1.00038 1 1.00115 0.999231
0.999921 1 1 0.999921
1 1 1 1
0.999872 1 1 0.999872
0.999998 1 1 0.999998
1 1 1 1
1.00142 1 1.00165 0.999771
1.00365 1 1.00411 0.999538
1 1 1 1
1 1 1 1
1.00509 1 1.00586 0.999235
1 1 1 1
1.08473 1.09051 0.998861 0.995832
1.08423 1.09084 0.997902 0.996024
1.07541 1.08812 0.992007 0.996283
1.07148 1.08465 0.991377 0.996449
1.08212 1.08895 0.997696 0.996025
1.04433 1.0485 1 0.996027
1.08208 1.08862 0.997968 0.996013
1.07156 1.08395 0.992107 0.996436
1.07429 1.08607 0.992743 0.996377
1.07123 1.08797 0.987914 0.99666
1.07535 1.08934 0.990995 0.996127
1.0721 1.09212 0.984987 0.996627
1.07159 1.08366 0.992427 0.996412
1.07074 1.08806 0.987426 0.996616
1.07267 1.0896 0.987742 0.996688
1.07371 1.09574 0.98307 0.996776
1.07152 1.09168 0.985047 0.996429
1.0764 1.09962 0.982005 0.996821
1.08178 1.08791 0.99834 0.996021
1.08125 1.08857 0.997248 0.996018
1.07166 1.08357 0.992548 0.996435
1.07636 1.08807 0.992987 0.996222
1.02298 1.02463 1.00171 0.996695
1.05258 1.05724 1 0.995595
1.06747 1.07238 1.00018 0.995242
1.07527 1.08399 0.995874 0.996062
1.06745 1.08636 0.985915 0.996631
1.06677 1.08113 0.990338 0.996348
1.06886 1.0736 0.999991 0.995602
1.06086 1.07403 0.991195 0.99651
1.02091 1.02013 1.00459 0.996182
1.01589 1.01074 1.00918 0.995951
1.01163 1.00173 1.01178 0.998131
1.0095 1.00122 1.01129 0.99701
1.07231 1.08319 0.993539 0.996394
1.07474 1.08651 0.992847 0.996293
1.06678 1.08291 0.988489 0.996579
1.06671 1.08726 0.984447 0.996602
1.03602 1.03816 1.00209 0.995851
1.0511 1.05603 1.00003 0.995297
1.06127 1.06607 1.00039 0.995107
1.06666 1.08381 0.987676 0.996455
1.06681 1.08917 0.982617 0.996803
1.06315 1.06868 0.999116 0.995709
1.05854 1.08024 0.983149 0.996708
1.0613 1.07671 0.989081 0.996573
1.02387 1.02403 1.00409 0.995781
1.01646 1.00974 1.01088 0.995818
1.014 1.00428 1.01316 0.996564
1.01184 1.00215 1.01134 0.998354
1.01697 1.00375 1.01599 0.997233
1.06939 1.0865 0.987617 0.996595
1.06978 1.08933 0.985401 0.996602
1.06606 1.09494 0.976757 0.996788
1.06196 1.08625 0.980783 0.9968
1.03294 1.03756 1.00001 0.995541
1.0597 1.08338 0.981205 0.996876
1.03418 1.03901 1.00029 0.995062
1.05226 1.05714 1.0004 0.994989
1.05965 1.06907 0.995432 0.995734
1.00663 1 1.00789 0.998753
1.01644 1.00001 1.01889 0.997587
1.01832 1.01186 1.00951 0.9969
1.01692 1.01624 1.00502 0.995677
1.01976 1.00572 1.01798 0.996055
1.01906 1.00858 1.01476 0.995688
1.00029 1 1.00049 0.999793
1.01164 1 1.01305 0.998608
1.0769 1.08791 0.993921 0.995939
1.01734 1.00274 1.01713 0.997463
1.01333 1.01329 1.00354 0.996518
1.01366 1.01246 1.00449 0.996708
1.0718 1.07659 0.999761 0.995782
1.06661 1.07898 0.992525 0.995978
1.02945 1.03146 1.0026 0.995459
1.0486 1.05265 1.00077 0.995381
1.08047 1.08573 0.999269 0.995881
1.00484 1 1.00597 0.998875
1.01581 1.00057 1.01744 0.997826
1.0138 1.01609 1.00174 0.996014
1.02311 1.01102 1.0149 0.997106
1.02061 1.02114 1.0029 0.996584
1.06934 1.08709 0.987442 0.996178
1.07025 1.07675 0.998033 0.995924
1.06189 1.07761 0.989137 0.996237
1.01075 1.01212 1.00324 0.995414
1.04307 1.04796 0.999994 0.995339
1.00846 1 1.0103 0.998173
1.02101 1.00263 1.02099 0.997405
1.00766 1.00932 1.00244 0.99593
1.03062 1.02171 1.01201 0.99675
1.03934 1.04193 1.00111 0.996416
1.05938 1.08724 0.977637 0.996665
1.07143 1.07977 0.996509 0.995753
1.07004 1.08327 0.991596 0.996156
1.01352 1.01378 1.00433 0.995434
1.01969 1.0247 1 0.99511
1.00216 1 1.00308 0.999076
1.00435 1 1.006 0.998361
1.00068 1 1.0024 0.998282
1.00406 1 1.00562 0.998449
1.00166 1 1.00306 0.998604
1.00688 1 1.00863 0.998262
1.00187 1 1.00354 0.998332
1.00585 1 1.00766 0.998203
0.999622 1 1.00093 0.99869
0.99944 1 1 0.99944
0.999437 1 1 0.999437
0.999974 1 1 0.999974
0.999453 1 1.00009 0.999365
0.999957 1 1 0.999957
1 1 1 1
0.999933 1 1 0.999933
1 1 1 1
1 1 1 1
1.00004 1 1.00014 0.9999
1.00155 1 1.00181 0.999747
1 1 1 1
1.00391 1 1.00439 0.999521
1 1 1 1
1 1 1 1
1.07544 1.08958 0.990861 0.996123
1.07427 1.08607 0.992738 0.996378
1.07208 1.09219 0.984883 0.996649
1.07022 1.08774 0.987163 0.996687
1.0718 1.08388 0.992396 0.996431
1.08179 1.08832 0.997973 0.996014
1.07186 1.08365 0.992699 0.996395
1.07129 1.08804 0.987951 0.996609
1.07218 1.08898 0.987852 0.996674
1.07162 1.09468 0.98209 0.996785
1.07173 1.09164 0.985279 0.996432
1.0735 1.0979 0.980859 0.996856
1.07189 1.08813 0.988451 0.996588
1.07456 1.09798 0.981834 0.996779
1.07388 1.0987 0.980488 0.996859
1.06742 1.09852 0.974753 0.996856
1.07262 1.08349 0.993552 0.996393
1.0745 1.08625 0.992884 0.996277
1.0665 1.08285 0.988254 0.996608
1.06805 1.08766 0.985338 0.996585
1.03692 1.03884 1.00231 0.995848
1.05091 1.05585 1 0.995322
1.0605 1.0651 1.00058 0.995094
1.06739 1.08394 0.98829 0.996406
1.06456 1.08782 0.98171 0.996859
1.05936 1.08107 0.983159 0.996707
1.06165 1.0668 0.999476 0.995694
1.061 1.07648 0.988939 0.996647
1.02015 1.02016 1.00423 0.995788
1.01426 1.00936 1.00909 0.995801
1.0166 1.00405 1.01599 0.996562
1.00965 1.00143 1.00989 0.99834
1.01379 1.0003 1.01626 0.997268
1.06916 1.08623 0.987644 0.996596
1.07042 1.08995 0.985436 0.996598
1.06705 1.09436 0.978186 0.996781
1.03307 1.03753 1.00016 0.99554
1.03461 1.03944 1.00026 0.995093
1.05018 1.0547 1.00074 0.994978
1.06221 1.08601 0.981239 0.996788
1.06185 1.0715 0.99511 0.995866
1.0566 1.0806 0.980891 0.996843
1.007 1 1.00819 0.99882
1.01428 1.01322 1.00539 0.995674
1.01789 1.00664 1.01547 0.995778
1.02228 1.00784 1.01835 0.996042
1.01995 1.01214 1.01082 0.996933
1.01907 1.00323 1.01828 0.997543
1.0733 1.09588 0.982682 0.996662
1.07102 1.10167 0.975347 0.996743
1.06002 1.09379 0.972186 0.996855
1.05288 1.08644 0.972044 0.996987
1.01809 1.02247 1.00031 0.995411
1.05045 1.06931 0.985889 0.99643
1.01924 1.02294 1.00165 0.994745
1.03723 1.04237 1.0002 0.994869
1.00122 1 1.00197 0.999254
1.01506 1 1.01701 0.998085
1.0162 1.00673 1.01222 0.997225
1.02634 1.00956 1.02034 0.996349
1.01164 1.00576 1.0102 0.995686
1.02433 1.007 1.02183 0.995489
1.00444 1 1.00556 0.998881
1.0157 1 1.0179 0.99783
1.06808 1.0857 0.987546 0.996173
1.02238 1.00922 1.01598 0.99711
1.01804 1.02029 1.00187 0.995936
1.02004 1.02101 1.0025 0.996559
1.07335 1.07979 0.998116 0.99591
1.06457 1.08054 0.988921 0.996257
1.01373 1.01564 1.00273 0.995395
1.04049 1.04519 1.0002 0.9953
1.00845 1.00007 1.01023 0.99818
1.02108 1.00244 1.02129 0.997361
1.00807 1.00958 1.00258 0.995925
1.0297 1.02218 1.01065 0.99674
1.04399 1.04713 1.00055 0.996446
1.06215 1.08975 0.977889 0.996712
1.07129 1.07956 0.996516 0.995805
1.07077 1.08326 0.992195 0.996245
1.01568 1.01572 1.00458 0.995399
1.01881 1.02389 1.00003 0.995009
1.00654 1 1.0086 0.997951
1.02036 1.00256 1.02072 0.997096
1.02431 1.02457 1.00378 0.995977
1.037 1.03768 1.00301 0.996343
1.06172 1.11349 0.956427 0.996947
1.05923 1.08425 0.980151 0.996704
1.05272 1.05849 0.999273 0.995276
1.02661 1.02737 1.00426 0.995027
1.00392 1 1.00557 0.998366
1.0018 1 1.00354 0.998267
1.00024 0.999864 1.00188 0.998495
1.00238 1 1.00378 0.998602
1.009 1 1.01076 0.998257
0.999723 1 1.00104 0.998684
1.0019 0.999851 1.00368 0.998367
1.00769 1 1.0095 0.998215
0.99995 1 1.00134 0.998617
1.00761 1 1.00952 0.99811