# vtk DataFile Version 2.0
Wound Healing Simulation
ASCII
DATASET UNSTRUCTURED_GRID
POINTS 3012 float
69.9759 18.75 4
67.2507 60.3285 4
69.976 18.75 2
73.0099 25.446 4
71.1327 20.9142 4
68.6801 16.6661 4
67.8246 19.9262 3.98041
67.2507 60.3286 2
71.1327 54.0858 4
68.6801 58.3339 4
65.6939 62.2254 4
65.3111 59.0006 3.97943
74.6784 42.3946 4
73.7221 47.2057 4
69.9759 18.75 0
73.0099 25.446 2
68.6801 16.6661 2
71.1327 20.9142 2
67.8252 19.9296 2
74.6792 32.6053 4
73.7222 27.7943 4
72.1454 23.1494 4
70.6134 26.2209 3.97995
68.8848 21.958 3.9808
67.2507 14.6715 4
66.636 17.9725 3.97939
65.7939 21.027 3.96969
67.2507 60.3285 0
71.1327 54.0858 2
68.6801 58.3339 2
65.694 62.2255 2
65.3124 58.9967 2
72.1454 51.8506 4
69.9759 56.25 4
68.8355 53.113 3.98
64.0165 64.0165 4
66.6098 57.1334 3.97998
63.8842 60.7649 3.97959
63.4972 57.7681 3.97088
60.3285 67.2507 4
74.6792 42.3947 2
73.7222 47.2057 2
74.9194 39.9526 4
74.2788 44.8158 4
72.1677 42.0855 3.97969
73.0099 49.554 4
71.2486 46.5979 3.97925
73.0099 25.446 0
71.1327 20.9142 0
68.6801 16.6661 0
67.8246 19.9262 0.0195913
74.6792 32.6053 2
73.7222 27.7943 2
67.2508 14.6715 2
72.1455 23.1494 2
70.6133 26.2215 2
66.637 17.9767 2
68.8851 21.9602 2
65.7933 21.0281 2
74.9197 35.0474 4
74.2794 30.1841 4
72.1843 32.9434 3.97994
71.2775 28.4314 3.97953
69.8147 24.0595 3.98056
68.3441 26.9523 3.96894
66.7595 22.9345 3.96931
65.694 12.7746 4
65.3223 16.1045 3.97895
64.7101 19.1979 3.96998
63.8766 22.0411 3.96621
71.1327 54.0858 0
65.6939 62.2254 0
68.6801 58.3339 0
65.3111 59.0006 0.0205721
72.1455 51.8506 2
69.9759 56.25 2
68.8357 53.111 2
64.0165 64.0165 2
66.6107 57.1296 2
63.8859 60.7614 2
63.4966 57.7678 2
62.2254 65.694 4
58.8938 65.4138 3.98921
69.7681 50.9888 3.97971
67.7827 55.1671 3.97988
66.6465 52.2078 3.96858
62.3349 62.4268 3.98348
64.6576 56.0292 3.96993
62.1988 59.3976 3.96928
61.8162 56.6734 3.96607
58.3339 68.6801 4
60.3285 67.2508 2
73.7221 47.2057 0
74.6784 42.3946 0
74.9197 39.9526 2
74.2794 44.8159 2
72.1672 42.0854 2
73.0099 49.554 2
71.2484 46.5977 2
75 37.5 4
72.405 39.8022 3.98033
71.7819 44.3528 3.97966
69.8019 41.7895 3.96917
70.5743 48.8134 3.97934
68.9096 46.0141 3.96872
74.6792 32.6053 0
73.7222 27.7943 0
67.2507 14.6715 0
72.1454 23.1494 0
70.6134 26.2209 0.0200522
68.8848 21.958 0.0191987
66.636 17.9725 0.020611
65.7939 21.027 0.0303064
74.9197 35.0474 2
74.2794 30.1841 2
72.1838 32.9438 2
71.2774 28.4319 2
65.694 12.7745 2
65.3238 16.109 2
69.8148 24.0607 2
68.344 26.953 2
64.7094 19.1988 2
66.7591 22.9354 2
63.8762 22.0416 2
72.4128 35.2242 3.98038
71.8033 30.6763 3.97996
69.8378 33.2688 3.96932
68.9635 29.0389 3.96898
67.6084 24.913 3.96904
66.1755 27.6394 3.96699
64.0165 10.9835 4
64.7422 23.8353 3.96654
63.8885 14.3287 3.98034
63.5093 17.4523 3.97073
62.8985 20.3274 3.96573
62.0461 22.9607 3.96689
60.6829 11.0989 3.985
57.611 11.4537 3.97666
72.1454 51.8506 0
69.9759 56.25 0
68.8355 53.113 0.0200028
64.0165 64.0165 0
63.8842 60.7649 0.0204141
66.6098 57.1334 0.0200229
63.4972 57.7681 0.0291249
62.2255 65.694 2
58.8953 65.4129 2
69.768 50.9878 2
67.7832 55.164 2
66.646 52.207 2
62.3369 62.424 2
64.657 56.0286 2
62.1982 59.3979 2
61.8156 56.6733 2
60.6676 63.9762 3.98616
57.025 66.7346 3.99065
57.5564 63.6877 3.97884
67.5045 50.1755 3.96832
65.6987 54.1716 3.96904
64.5199 51.3788 3.96579
60.7702 60.9317 3.97284
62.8131 55.0616 3.96597
60.649 58.1473 3.96411
60.3165 55.7717 3.9649
56.25 69.9759 4
58.3339 68.6801 2
60.3285 67.2507 0
58.9204 9.65693 3.98702
62.2254 9.30607 4
73.0099 49.554 0
74.2788 44.8158 0
71.2486 46.5979 0.0207495
72.1677 42.0855 0.0203136
74.9194 39.9526 0
75 37.5 2
72.4049 39.8023 2
71.7818 44.3524 2
69.8013 41.7892 2
70.5742 48.8131 2
68.9096 46.0135 2
72.4883 37.5121 3.97992
70.0393 39.6574 3.96929
69.428 43.9071 3.96901
67.5787 41.4952 3.96839
68.2631 48.1061 3.9684
66.6843 45.4348 3.96756
74.9197 35.0474 0
74.2794 30.1841 0
72.1843 32.9434 0.0200645
71.2775 28.4314 0.0204664
65.694 12.7746 0
65.3223 16.1045 0.0210502
69.8147 24.0595 0.0194385
68.3441 26.9523 0.0310563
66.7595 22.9345 0.030685
64.7101 19.1979 0.0300157
63.8766 22.0411 0.0337942
72.4128 35.2243 2
71.8033 30.6769 2
69.8373 33.2693 2
68.9635 29.0394 2
64.0165 10.9835 2
63.8906 14.3327 2
63.5087 17.4532 2
67.6082 24.9138 2
66.1756 27.6398 2
62.8979 20.3279 2
64.7418 23.8358 2
62.0455 22.9612 2
60.6854 11.1017 2
57.6121 11.4521 2
70.056 35.3922 3.96943
69.4648 31.15 3.96909
67.6401 33.5932 3.96809
66.7526 29.627 3.96733
65.506 25.7044 3.96669
64.071 28.271 3.97014
62.3405 12.6562 3.98329
62.7999 24.6544 3.96813
62.195 15.7933 3.97086
61.8046 18.695 3.9661
61.1784 21.3602 3.96523
60.3325 23.758 3.96925
59.244 12.7867 3.9737
55.8735 10.239 3.97892
56.4026 13.132 3.97324
69.7681 50.9888 0.0202876
62.2254 65.694 0
58.8938 65.4138 0.0107934
67.7827 55.1671 0.0201212
66.6465 52.2078 0.0314153
62.3349 62.4268 0.0165159
62.1988 59.3976 0.0307247
64.6576 56.0292 0.0300722
61.8162 56.6734 0.0339325
60.6695 63.9746 2
57.026 66.7342 2
57.5564 63.6895 2
67.5042 50.1747 2
65.698 54.1707 2
64.5198 51.3785 2
60.7699 60.9323 2
62.8124 55.0614 2
60.6486 58.1474 2
60.3162 55.7714 2
55.0709 67.9315 3.99165
59.2167 62.3599 3.97405
55.8039 64.9071 3.98303
56.3237 62.0776 3.97485
65.308 49.4016 3.96622
63.6957 53.2865 3.96557
62.3757 50.6327 3.96725
59.3266 59.5448 3.96775
61.0546 54.2945 3.9659
59.2708 56.9933 3.96361
59.2208 55.1641 3.96528
48.1015 68.5772 3.98706
50.9487 69.9312 3.99176
54.0858 71.1327 4
56.25 69.976 2
58.3339 68.6801 0
57.0579 8.33674 3.98821
60.3285 7.74928 4
58.9228 9.65856 2
62.2255 9.30602 2
70.5743 48.8134 0.0206552
71.7819 44.3528 0.0203415
68.9096 46.0141 0.0312762
69.8019 41.7895 0.0308322
72.405 39.8022 0.0196702
75 37.5 0
72.4878 37.5122 2
70.0392 39.6573 2
69.4279 43.9066 2
67.5787 41.495 2
68.263 48.1054 2
66.6838 45.4344 2
70.1272 37.5217 3.96931
67.819 39.5113 3.96846
67.2004 43.4662 3.96795
65.4726 41.2021 3.97266
66.042 47.4118 3.96693
64.5608 44.8334 3.97078
72.4128 35.2242 0.0196211
71.8033 30.6763 0.0200409
69.8378 33.2688 0.0306824
68.9635 29.0389 0.0310237
64.0165 10.9835 0
63.8885 14.3287 0.0196648
63.5093 17.4523 0.0292709
67.6084 24.913 0.0309565
66.1755 27.6394 0.0330146
64.7422 23.8353 0.0334589
62.8985 20.3274 0.0342676
62.0461 22.9607 0.0331073
60.6829 11.0989 0.0150046
57.611 11.4537 0.023339
70.0559 35.3925 2
69.4647 31.1505 2
67.6402 33.5934 2
66.7527 29.6274 2
62.3428 12.6599 2
62.1945 15.7934 2
61.8039 18.6954 2
65.5058 25.7049 2
64.0697 28.2715 2
61.1773 21.3607 2
62.7993 24.6549 2
60.3322 23.7587 2
59.2452 12.7864 2
56.4032 13.1301 2
55.8742 10.2377 2
67.8578 35.5488 3.96844
67.2476 31.6257 3.96775
65.6259 33.9336 3.97262
64.5854 30.2052 3.97106
63.4728 26.4307 3.96921
62.1251 28.803 3.9743
60.7726 14.231 3.97302
60.9389 25.3673 3.97131
60.6024 17.1425 3.9657
60.1904 19.8367 3.96354
59.5737 22.2909 3.96608
58.8479 24.3613 3.97184
54.0369 9.13998 3.98092
57.9061 14.3484 3.97351
54.7845 12.023 3.97429
55.3065 14.6718 3.97154
67.5045 50.1755 0.0316813
57.025 66.7346 0.00934978
60.6676 63.9762 0.0138445
57.5564 63.6877 0.0211636
65.6987 54.1716 0.0309558
64.5199 51.3788 0.0342052
60.7702 60.9317 0.0271577
60.649 58.1473 0.0358948
62.8131 55.0616 0.0340299
60.3165 55.7717 0.0351013
55.0716 67.9314 2
59.217 62.3612 2
55.8037 64.9082 2
56.3231 62.0799 2
65.3078 49.4012 2
63.6956 53.2863 2
62.3755 50.6323 2
59.3259 59.546 2
61.0551 54.2943 2
59.2713 56.9931 2
59.2216 55.1637 2
53.0429 68.9992 3.99166
53.9662 66.0113 3.98482
57.876 60.8571 3.97358
54.6822 63.2015 3.97748
55.2056 60.5965 3.9735
63.1152 48.6418 3.96848
61.6953 52.5575 3.96649
60.1519 49.9867 3.96915
58.0035 58.2442 3.96502
59.2802 53.9236 3.96697
58.0819 55.787 3.96108
50.1083 67.8556 3.98673
47.4623 66.5773 3.9834
46.0552 69.1562 3.98727
48.1015 68.5779 2
48.8027 70.7224 3.99187
50.9492 69.9311 2
51.8506 72.1454 4
54.0858 71.1327 2
56.25 69.9759 0
55.1027 7.14108 3.99003
58.3339 6.31992 4
57.0597 8.33762 2
60.3286 7.74926 2
58.9204 9.65693 0.0129808
62.2254 9.30607 0
68.2631 48.1061 0.0315991
69.428 43.9071 0.0309937
66.6843 45.4348 0.032436
67.5787 41.4952 0.0316119
70.0393 39.6574 0.0307111
72.4883 37.5121 0.0200813
70.1268 37.5217 2
67.8188 39.5112 2
67.2011 43.4659 2
65.4714 41.2018 2
66.0422 47.4114 2
64.5594 44.833 2
67.9179 37.5222 3.96848
65.7098 39.3662 3.97285
65.0912 43.014 3.97214
63.6109 40.9167 3.97722
63.8749 46.6989 3.96951
62.6541 44.1928 3.97491
70.056 35.3922 0.0305702
69.4648 31.15 0.0309134
67.6401 33.5932 0.0319116
66.7526 29.627 0.0326662
62.3405 12.6562 0.0167136
62.195 15.7933 0.0291361
61.8046 18.695 0.0339001
65.506 25.7044 0.0333137
64.071 28.271 0.0298587
62.7999 24.6544 0.0318654
61.1784 21.3602 0.0347743
60.3325 23.758 0.030746
59.244 12.7867 0.0263025
56.4026 13.132 0.0267597
55.8735 10.239 0.0210801
67.8574 35.5489 2
67.2481 31.626 2
65.6247 33.9338 2
64.5842 30.2056 2
60.7727 14.232 2
60.602 17.1425 2
60.1916 19.8368 2
63.4719 26.4312 2
62.1228 28.8037 2
59.5751 22.2915 2
60.9382 25.368 2
58.847 24.3625 2
57.9063 14.3473 2
55.307 14.6711 2
54.0375 9.13841 2
54.7851 12.0208 2
65.8018 35.6699 3.97281
65.1053 32.1645 3.97158
64.165 34.2587 3.97705
62.4417 30.6582 3.97537
61.5304 27.1003 3.97257
60.6775 29.1733 3.9773
59.304 15.6837 3.96943
59.1746 25.8381 3.97468
59.1037 18.3774 3.96429
58.672 20.8868 3.963
58.1571 23.1364 3.96677
57.8161 24.7136 3.97384
52.1118 8.15623 3.98369
53.0565 11.0266 3.97626
56.6679 15.7652 3.97195
53.8051 13.7027 3.97407
54.3648 16.0282 3.97308
55.0709 67.9315 0.00835356
65.308 49.4016 0.0337767
55.8039 64.9071 0.0169712
59.2167 62.3599 0.0259477
56.3237 62.0776 0.0251502
63.6957 53.2865 0.0344344
62.3757 50.6327 0.032754
59.3266 59.5448 0.0322537
59.2708 56.9933 0.0363855
61.0546 54.2945 0.0341019
59.2208 55.1641 0.0347225
53.0434 68.9993 2
53.9662 66.0121 2
57.8752 60.8586 2
54.6816 63.2022 2
55.2052 60.5984 2
63.1144 48.6414 2
61.6962 52.5574 2
60.1517 49.9861 2
58.0028 58.2455 2
59.2824 53.9233 2
58.0799 55.7859 2
52.0695 66.9984 3.98637
52.9525 64.214 3.98143
56.6389 59.4721 3.97254
53.677 61.6113 3.9762
[...]
POINT_DATA 3012
SCALARS rho_c_phif_kappa float 4
LOOKUP_TABLE default
1000 0 1.00154 0.262656
1000 0 1.0013 0.26297
1000 0 1.00155 0.262546
1000 0 1.00154 0.262926
1000 0 1.00154 0.262687
1000 0 1.00155 0.26271
1008.94 1.00206e-08 1.00175 0.261849
1000 0 1.0013 0.263002
1000 0 1.0013 0.263064
1000 0 1.0013 0.262922
1000 0 1.00155 0.262418
1008.92 9.83929e-09 1.00188 0.261857
1000 0 1.00154 0.263112
1000 0 1.00154 0.263577
1000 0 1.00155 0.262415
1000 0 1.00154 0.263131
1000 0 1.00155 0.262497
1000 0 1.00154 0.262695
1008.92 1.00417e-08 1.00175 0.261943
1000 0 1.0013 0.26326
1000 0 1.00154 0.263024
1000 0 1.00154 0.262793
1008.9 1.01168e-08 1.00175 0.262379
1008.93 1.00604e-08 1.00175 0.262015
1000 0 1.00155 0.262807
1008.97 9.9802e-09 1.00176 0.261666
1009.33 1.07852e-08 1.00195 0.260507
1000 0 1.0013 0.263084
1000 0 1.00142 0.262853
1000 0 1.00142 0.262701
1000 0 1.0013 0.263173
1008.96 9.86512e-09 1.00188 0.261837
1000 0 1.00154 0.262703
1000 0 1.00154 0.262335
1008.94 1.0075e-08 1.00176 0.261891
1000 0 1.0013 0.263214
1008.91 9.91152e-09 1.00176 0.261966
1008.96 9.80213e-09 1.00189 0.261985
1009.35 1.07982e-08 1.00195 0.260533
1000 0 1.0013 0.263548
1000 0 1.0013 0.263254
1000 0 1.00142 0.263381
1000 0 1.0013 0.263275
1000 0 1.00154 0.263644
1008.85 1.01297e-08 1.00187 0.262457
1000 0 1.0013 0.263571
1008.9 1.01576e-08 1.00175 0.262229
1000 0 1.00154 0.26339
1000 0 1.00154 0.262699
1000 0 1.00155 0.262272
1008.94 1.00206e-08 1.00175 0.262038
1000 0 1.00142 0.26347
1000 0 1.00154 0.263264
1000 0 1.00155 0.262532
1000 0 1.00154 0.262918
1008.76 1.01351e-08 1.00175 0.262281
1008.99 1.00042e-08 1.00176 0.261829
1008.85 1.00789e-08 1.00175 0.262034
1009.33 1.07813e-08 1.00195 0.260403
1000 0 1.0013 0.263298
1000 0 1.00154 0.263086
1008.84 1.01099e-08 1.00175 0.262667
1008.87 1.01267e-08 1.00175 0.262498
1008.91 1.00946e-08 1.00175 0.262197
1009.29 1.07599e-08 1.00194 0.2606
1009.31 1.0775e-08 1.00194 0.260385
1000 0 1.00155 0.262944
1009.01 9.94521e-09 1.00176 0.261524
1009.34 1.07982e-08 1.00195 0.26049
1009.14 1.05804e-08 1.00193 0.258359
1000 0 1.0013 0.262877
1000 0 1.0013 0.263296
1000 0 1.0013 0.262907
1008.92 9.83929e-09 1.00188 0.261813
1000 0 1.0013 0.262986
1000 0 1.0013 0.262806
1008.86 1.00942e-08 1.00188 0.261966
1000 0 1.00142 0.262916
1008.93 9.93542e-09 1.00188 0.261903
1009 9.82641e-09 1.00183 0.261969
1009.35 1.07939e-08 1.00195 0.260573
1000 0 1.0013 0.263414
1009.2 9.82997e-09 1.0019 0.262342
1008.94 1.01281e-08 1.00188 0.262117
1008.92 9.99824e-09 1.00188 0.262032
1009.31 1.07679e-08 1.00194 0.260248
1009.03 9.79058e-09 1.00177 0.262076
1009.34 1.07905e-08 1.00194 0.260436
1009.37 1.08116e-08 1.00195 0.260658
1009.18 1.06337e-08 1.00193 0.259196
1000 0 1.0013 0.263627
1000 0 1.0013 0.263577
1000 0 1.0013 0.263165
1000 0 1.0013 0.263263
1000 0 1.0013 0.263274
1000 0 1.00142 0.263443
1008.65 1.01493e-08 1.00181 0.262396
1000 0 1.00142 0.263259
1008.77 1.01771e-08 1.00181 0.262326
1000 0 1.0013 0.263291
1008.82 1.01101e-08 1.00187 0.262496
1008.87 1.01468e-08 1.00175 0.262288
1009.28 1.07495e-08 1.00193 0.260633
1008.93 1.01548e-08 1.00175 0.262118
1009.29 1.07557e-08 1.00193 0.260615
1000 0 1.00154 0.263106
1000 0 1.00154 0.263571
1000 0 1.00155 0.262275
1000 0 1.00154 0.263058
1008.9 1.01168e-08 1.00175 0.262165
1008.93 1.00604e-08 1.00175 0.262052
1008.97 9.9802e-09 1.00175 0.261991
1009.33 1.07852e-08 1.00195 0.260313
1000 0 1.0013 0.263267
1000 0 1.00154 0.263351
1008.66 1.01299e-08 1.00181 0.262439
1008.74 1.01462e-08 1.00175 0.262402
1000 0 1.00142 0.262828
1009.05 9.97062e-09 1.00176 0.261794
1008.8 1.01121e-08 1.00175 0.262139
1009.31 1.07567e-08 1.00194 0.260538
1009.34 1.07933e-08 1.00195 0.260358
1009.32 1.07716e-08 1.00195 0.260386
1009.14 1.05807e-08 1.00193 0.258332
1008.8 1.01015e-08 1.00187 0.262573
1008.85 1.01235e-08 1.00174 0.262556
1009.28 1.0751e-08 1.00194 0.260722
1009.29 1.07556e-08 1.00194 0.260646
1009.3 1.07663e-08 1.00194 0.260417
1009.11 1.05366e-08 1.00192 0.258737
1000 0 1.0013 0.263342
1009.13 1.05625e-08 1.00192 0.258302
1009.05 9.91638e-09 1.00189 0.261742
1009.36 1.08148e-08 1.00195 0.260399
1009.16 1.06015e-08 1.00193 0.258506
1009.12 1.05423e-08 1.00192 0.256236
1009.17 9.89034e-09 1.0019 0.262303
1009.39 1.08452e-08 1.00195 0.262101
1000 0 1.0013 0.262982
1000 0 1.0013 0.262857
1008.94 1.0075e-08 1.00188 0.26201
1000 0 1.0013 0.263418
1008.96 9.80213e-09 1.00189 0.261847
1008.91 9.91152e-09 1.00188 0.261892
1009.35 1.07982e-08 1.00195 0.260605
1000 0 1.0013 0.263484
1009.2 9.84019e-09 1.0019 0.262448
1008.83 1.01461e-08 1.00182 0.262088
1008.9 1.00199e-08 1.00182 0.261979
1009.32 1.07645e-08 1.00194 0.260249
1009.05 9.80899e-09 1.00189 0.261985
1009.34 1.07863e-08 1.00194 0.260477
1009.36 1.08081e-08 1.00195 0.260705
1009.18 1.06345e-08 1.00193 0.259101
1009.11 9.8047e-09 1.0019 0.262133
1009.28 9.85508e-09 1.00191 0.2625
1009.39 1.0839e-08 1.00195 0.262347
1009.3 1.07603e-08 1.00194 0.260339
1009.32 1.07788e-08 1.00194 0.260276
1009.12 1.05594e-08 1.00192 0.258024
1009.38 1.08258e-08 1.00195 0.261318
1009.16 1.06102e-08 1.00193 0.258591
1009.2 1.06565e-08 1.00194 0.259345
1009.16 1.05889e-08 1.00193 0.257731
1000 0 1.0013 0.263637
1000 0 1.0013 0.263604
1000 0 1.0013 0.263561
1009.24 9.90095e-09 1.0019 0.26245
1000 0 1.0013 0.263443
1000 0 1.0013 0.263099
1000 0 1.0013 0.263219
1008.9 1.01576e-08 1.00187 0.262435
1008.85 1.01297e-08 1.00187 0.262537
1000 0 1.0013 0.263292
1000 0 1.0013 0.263285
1008.8 1.01287e-08 1.00187 0.262511
1008.87 1.01656e-08 1.00181 0.262388
1009.31 1.07459e-08 1.00193 0.260634
1008.79 1.01733e-08 1.00188 0.262287
1009.3 1.07523e-08 1.00193 0.260603
1008.81 1.00959e-08 1.00187 0.262525
1009.28 1.07454e-08 1.00193 0.260611
1009.29 1.07535e-08 1.00193 0.260659
1009.11 1.05283e-08 1.00192 0.259189
1009.29 1.0757e-08 1.00194 0.26049
1009.11 1.05305e-08 1.00192 0.258776
1000 0 1.0013 0.263268
1000 0 1.00154 0.263638
1008.84 1.01099e-08 1.00186 0.262488
1008.87 1.01267e-08 1.00175 0.262281
1000 0 1.0013 0.263082
1009.01 9.94521e-09 1.00177 0.262067
1008.91 1.00946e-08 1.00175 0.262077
1009.29 1.07599e-08 1.00194 0.260468
1009.31 1.0775e-08 1.00195 0.260389
1009.34 1.07982e-08 1.00195 0.260229
1009.14 1.05804e-08 1.00193 0.258301
1008.76 1.01201e-08 1.00187 0.262543
1008.84 1.01424e-08 1.00174 0.262457
1009.31 1.07475e-08 1.00193 0.260683
1009.31 1.07522e-08 1.00194 0.260661
1000 0 1.0013 0.263314
1009.09 9.93813e-09 1.00183 0.261888
1009.35 1.08105e-08 1.00195 0.260422
1009.32 1.07631e-08 1.00194 0.260385
1009.11 1.05368e-08 1.00192 0.258596
1009.16 1.06021e-08 1.00193 0.25844
1009.13 1.05627e-08 1.00192 0.258334
1009.12 1.05424e-08 1.00192 0.256268
1009.18 9.90647e-09 1.0019 0.262189
1009.38 1.08417e-08 1.00195 0.262104
1009.28 1.07473e-08 1.00193 0.260653
1009.29 1.07527e-08 1.00194 0.260736
1009.11 1.0529e-08 1.00192 0.259353
1009.11 1.05305e-08 1.00192 0.258688
1009.12 1.05477e-08 1.00192 0.25833
1009.09 1.05096e-08 1.00192 0.256824
1009.11 9.89423e-09 1.0019 0.262064
1009.1 1.05284e-08 1.00192 0.25614
1009.38 1.08325e-08 1.00195 0.260913
1009.18 1.06262e-08 1.00193 0.258841
1009.13 1.05608e-08 1.00193 0.256476
1009.11 1.05376e-08 1.00192 0.254688
1009.38 1.08397e-08 1.00195 0.261767
1009.38 1.08481e-08 1.00195 0.262593
1009.21 1.0689e-08 1.00194 0.261248
1008.94 1.01281e-08 1.00188 0.262159
1000 0 1.0013 0.263524
1009.2 9.82997e-09 1.0019 0.262563
1008.92 9.99824e-09 1.00188 0.261917
1009.31 1.07679e-08 1.00194 0.260256
1009.03 9.79058e-09 1.00189 0.262143
1009.37 1.08116e-08 1.00195 0.260747
1009.34 1.07905e-08 1.00194 0.260511
1009.18 1.06337e-08 1.00193 0.259017
1009.11 9.81898e-09 1.0019 0.262269
1009.27 9.8638e-09 1.00191 0.262543
1009.39 1.0836e-08 1.00195 0.262395
1009.31 1.07571e-08 1.00194 0.260329
1009.33 1.0775e-08 1.00194 0.260293
1009.12 1.05599e-08 1.00192 0.25805
1009.38 1.08222e-08 1.00195 0.26133
1009.17 1.06107e-08 1.00193 0.258675
1009.2 1.06572e-08 1.00194 0.259357
1009.16 1.0589e-08 1.00193 0.257518
1009.35 9.88169e-09 1.00191 0.26251
1009.39 1.08307e-08 1.00195 0.261971
1009.39 1.08414e-08 1.00195 0.262843
1009.22 1.07017e-08 1.00194 0.261509
1009.11 1.05469e-08 1.00192 0.258113
1009.14 1.05826e-08 1.00193 0.258167
1009.1 1.05018e-08 1.00192 0.255491
1009.21 1.06802e-08 1.00194 0.2602
1009.14 1.05601e-08 1.00193 0.256099
1009.17 1.06123e-08 1.00193 0.257899
1009.15 1.05724e-08 1.00193 0.256441
1009.36 1.08476e-08 1.00195 0.263235
1009.49 9.93394e-09 1.00192 0.26238
1000 0 1.0013 0.26364
1000 0 1.0013 0.263615
1000 0 1.0013 0.263583
1009.32 9.92769e-09 1.00191 0.262524
1000 0 1.0013 0.263513
1009.25 9.91339e-09 1.0019 0.262352
1000 0 1.0013 0.263406
1008.93 1.01548e-08 1.00188 0.262311
1008.87 1.01468e-08 1.00187 0.262514
1009.29 1.07557e-08 1.00193 0.260592
1009.28 1.07495e-08 1.00193 0.260636
1008.82 1.01101e-08 1.00187 0.262539
1000 0 1.0013 0.263292
1008.57 1.01164e-08 1.00187 0.262531
1009.27 1.07421e-08 1.00193 0.260612
1009.28 1.07501e-08 1.00193 0.260652
1009.1 1.05284e-08 1.00192 0.259183
1009.31 1.07538e-08 1.00194 0.260473
1009.1 1.05307e-08 1.00192 0.258783
1009.27 1.07447e-08 1.00193 0.260622
1009.1 1.05307e-08 1.00192 0.259303
1009.11 1.05302e-08 1.00192 0.259049
1009.08 1.04901e-08 1.00191 0.257757
1009.11 1.05345e-08 1.00192 0.258416
1009.09 1.05067e-08 1.00192 0.257026
1008.8 1.01015e-08 1.00187 0.262515
1008.85 1.01235e-08 1.00174 0.262342
1009.28 1.0751e-08 1.00193 0.260643
1009.29 1.07556e-08 1.00194 0.260667
1000 0 1.0013 0.263274
1009.05 9.91638e-09 1.00177 0.26186
1009.36 1.08148e-08 1.00196 0.260431
1009.3 1.07663e-08 1.00194 0.26035
1009.11 1.05366e-08 1.00192 0.258447
1009.13 1.05625e-08 1.00193 0.258368
1009.16 1.06015e-08 1.00193 0.258362
1009.12 1.05423e-08 1.00192 0.256294
1009.17 9.89034e-09 1.0019 0.262087
1009.39 1.08452e-08 1.00195 0.262101
1009.28 1.0744e-08 1.00193 0.260629
1009.28 1.07495e-08 1.00194 0.260703
1009.1 1.05292e-08 1.00192 0.259313
1009.1 1.05307e-08 1.00192 0.258811
1009.12 9.91329e-09 1.0019 0.261959
1009.37 1.08283e-08 1.00195 0.260855
1009.18 1.06273e-08 1.00193 0.258907
1009.12 1.05479e-08 1.00192 0.258398
1009.09 1.05095e-08 1.00192 0.256652
1009.13 1.05611e-08 1.00193 0.256254
1009.11 1.05285e-08 1.00192 0.256146
1009.11 1.05376e-08 1.00192 0.254571
1009.38 1.08366e-08 1.00195 0.261828
1009.21 1.06893e-08 1.00194 0.261341
1009.38 1.08447e-08 1.00195 0.262526
1009.1 1.05298e-08 1.00192 0.259397
1009.11 1.05305e-08 1.00192 0.259106
1009.08 1.04987e-08 1.00191 0.258063
1009.08 1.05019e-08 1.00191 0.256878
1009.09 1.0517e-08 1.00192 0.256151
1009.09 1.0505e-08 1.00191 0.254698
1009.38 1.08386e-08 1.00195 0.261444
1009.1 1.05214e-08 1.00192 0.254055
1009.2 1.06551e-08 1.00194 0.259766
1009.15 1.05858e-08 1.00193 0.256433
1009.13 1.05464e-08 1.00192 0.254394
1009.11 1.05388e-08 1.00192 0.252806
1009.37 1.08494e-08 1.00195 0.262985
1009.21 1.06829e-08 1.00194 0.261213
1009.21 1.0693e-08 1.00194 0.261584
1009.21 1.06541e-08 1.00194 0.260702
1009.3 1.07603e-08 1.00194 0.260323
1009.28 9.85508e-09 1.00191 0.262572
1009.11 9.8047e-09 1.0019 0.262424
1009.39 1.0839e-08 1.00195 0.262447
1009.32 1.07788e-08 1.00194 0.260312
1009.12 1.05594e-08 1.00192 0.258073
1009.38 1.08258e-08 1.00195 0.261337
1009.2 1.06565e-08 1.00194 0.259344
1009.16 1.06102e-08 1.00193 0.258763
1009.16 1.05889e-08 1.00193 0.25731
1009.35 9.88931e-09 1.00191 0.262516
1009.38 1.08276e-08 1.00195 0.261963
1009.38 1.08389e-08 1.00195 0.262947
1009.22 1.0702e-08 1.00194 0.261471
1009.11 1.05471e-08 1.00192 0.258128
1009.14 1.05832e-08 1.00193 0.258209
1009.1 1.05016e-08 1.00192 0.255489
1009.22 1.06809e-08 1.00194 0.260245
1009.14 1.05606e-08 1.00193 0.256282
1009.17 1.06124e-08 1.00193 0.25774
1009.15 1.05727e-08 1.00193 0.256467
1009.42 9.90548e-09 1.00191 0.262457
1009.38 1.08419e-08 1.00195 0.263231
1009.22 1.0693e-08 1.00194 0.261132
1009.22 1.07037e-08 1.00194 0.26209
1009.23 1.06672e-08 1.00194 0.260516
1009.09 1.04679e-08 1.00192 0.255718
1009.12 1.05387e-08 1.00192 0.255377
1009.11 1.05806e-08 1.00192 0.253175
1009.2 1.06435e-08 1.00194 0.258422
1009.13 1.05514e-08 1.00193 0.253552
1009.16 1.05635e-08 1.00193 0.256032
1009.36 1.08446e-08 1.00195 0.26329
1009.21 1.06937e-08 1.00194 0.263483
1009.35 1.0851e-08 1.00195 0.263203
1009.36 1.08462e-08 1.00195 0.263243
1009.55 9.96306e-09 1.00179 0.262669
1009.49 9.94141e-09 1.00185 0.262618
1000 0 1.00156 0.262977
1000 0 1.0013 0.263628
1000 0 1.0013 0.263602
1009.41 9.96479e-09 1.00191 0.262576
1000 0 1.0013 0.263569
1009.33 9.9382e-09 1.00191 0.262465
1000 0 1.0013 0.263491
1009.24 9.90095e-09 1.0019 0.262264
1000 0 1.0013 0.263371
1009.29 1.0757e-08 1.00193 0.260458
1009.29 1.07535e-08 1.00193 0.260647
1009.11 1.05305e-08 1.00192 0.258782
1009.11 1.05283e-08 1.00192 0.259176
1009.28 1.07454e-08 1.00193 0.260611
1008.81 1.00959e-08 1.00187 0.26251
1009.31 1.0741e-08 1.00193 0.260621
1009.1 1.05307e-08 1.00192 0.259297
1009.11 1.05304e-08 1.00192 0.259026
1009.08 1.04898e-08 1.00191 0.257645
1009.11 1.05348e-08 1.00192 0.258411
1009.09 1.05066e-08 1.00192 0.257051
1009.11 1.05338e-08 1.00192 0.259348
1009.08 1.04645e-08 1.00191 0.258107
1009.08 1.04945e-08 1.00191 0.257296
1009.08 1.051e-08 1.00191 0.256677
1009.09 1.04985e-08 1.00192 0.256385
1009.08 1.04851e-08 1.00191 0.254644
1009.28 1.07473e-08 1.00193 0.260611
1009.29 1.07527e-08 1.00194 0.260675
1009.11 1.0529e-08 1.00192 0.259266
1009.11 1.05305e-08 1.00192 0.258935
1009.11 9.89423e-09 1.0019 0.261861
1009.38 1.08325e-08 1.00195 0.260805
1009.18 1.06262e-08 1.00193 0.258991
1009.12 1.05477e-08 1.00192 0.258472
1009.09 1.05096e-08 1.00192 0.25648
1009.1 1.05284e-08 1.00192 0.256152
1009.13 1.05608e-08 1.00193 0.256053
1009.11 1.05376e-08 1.00192 0.254462
1009.38 1.08397e-08 1.00195 0.261884
1009.21 1.0689e-08 1.00194 0.261405
1009.38 1.08481e-08 1.00195 0.262476
1009.11 1.05299e-08 1.00192 0.259366
1009.11 1.05307e-08 1.00192 0.259055
1009.08 1.04983e-08 1.00191 0.257987
1009.08 1.05017e-08 1.00191 0.256957
1009.38 1.08346e-08 1.00195 0.261458
1009.2 1.0655e-08 1.00194 0.259754
1009.16 1.05871e-08 1.00193 0.256603
1009.09 1.05169e-08 1.00192 0.256282
1009.09 1.05046e-08 1.00191 0.254576
1009.13 1.05464e-08 1.00192 0.254208
1009.1 1.05213e-08 1.00192 0.254078
1009.11 1.05386e-08 1.00192 0.252794
1009.21 1.0684e-08 1.00194 0.261182
1009.21 1.06543e-08 1.00194 0.260669
1009.37 1.08469e-08 1.00195 0.262935
1009.21 1.06929e-08 1.00194 0.261687
1009.08 1.04717e-08 1.00191 0.258192
1009.08 1.04927e-08 1.00191 0.25761
1009.08 1.05038e-08 1.00191 0.25697
1009.08 1.05065e-08 1.00191 0.254414
1009.09 1.05112e-08 1.00192 0.254325
1009.08 1.05125e-08 1.00191 0.253708
1009.21 1.06743e-08 1.00194 0.260746
1009.1 1.05387e-08 1.00192 0.25203
1009.18 1.06183e-08 1.00193 0.257702
1009.14 1.05528e-08 1.00193 0.253965
1009.12 1.05758e-08 1.00192 0.252739
1009.09 1.05207e-08 1.00192 0.252319
1009.36 1.08512e-08 1.00195 0.263183
1009.21 1.06939e-08 1.00194 0.262085
1009.21 1.06473e-08 1.00194 0.260488
1009.23 1.06655e-08 1.00194 0.260728
1009.22 1.06548e-08 1.00194 0.260238
1009.35 9.88169e-09 1.00191 0.262509
1009.11 1.05469e-08 1.00192 0.258146
1009.39 1.08414e-08 1.00195 0.263069
1009.39 1.08307e-08 1.00195 0.261935
1009.22 1.07017e-08 1.00194 0.261439
1009.14 1.05826e-08 1.00193 0.258243
1009.1 1.05018e-08 1.00192 0.255487
1009.21 1.06802e-08 1.00194 0.260308
1009.17 1.06123e-08 1.00193 0.257525
1009.14 1.05601e-08 1.00193 0.256456
1009.15 1.05724e-08 1.00193 0.256487
1009.42 9.91271e-09 1.00191 0.262435
1009.38 1.08401e-08 1.00195 0.263302
1009.22 1.06942e-08 1.00194 0.261142
1009.22 1.07038e-08 1.00194 0.262119
1009.23 1.06674e-08 1.00194 0.260491
1009.09 1.04686e-08 1.00192 0.255677
1009.12 1.05385e-08 1.00192 0.255382
1009.11 1.05815e-08 1.00192 0.253107
1009.2 1.06435e-08 1.00194 0.258487
1009.13 1.05507e-08 1.00193 0.253752
1009.16 1.0564e-08 1.00193 0.256108
1009.37 1.08428e-08 1.00195 0.263324
1009.22 1.07004e-08 1.00194 0.262817
1009.22 1.06599e-08 1.00194 0.259653
1009.24 1.06785e-08 1.00194 0.26104
1009.23 1.06566e-08 1.00194 0.260084
1009.1 1.06683e-08 1.00192 0.254243
1009.11 1.04662e-08 1.00192 0.252317
1009.06 1.04655e-08 1.00192 0.250779
1009.19 1.05837e-08 1.00194 0.256429
1009.14 1.05993e-08 1.00193 0.253237
1009.36 1.08432e-08 1.00195 0.263305
1009.21 1.06952e-08 1.00194 0.263454
1009.21 1.0694e-08 1.00194 0.263472
1009.24 1.06724e-08 1.00194 0.26283
1009.21 1.06925e-08 1.00194 0.263449
1009.34 1.08548e-08 1.00195 0.2632
1009.35 1.08495e-08 1.00195 0.263203
1009.62 1.00011e-08 1.00179 0.262647
1009.36 1.08476e-08 1.00195 0.26325
1009.55 9.96968e-09 1.00179 0.262784
1000 0 1.00157 0.262965
1009.49 9.93394e-09 1.00179 0.262768
1000 0 1.00143 0.26313
1000 0 1.0013 0.263618
1009.49 1.00026e-08 1.00192 0.262589
1009.41 9.97279e-09 1.00191 0.262531
1000 0 1.0013 0.263588
1000 0 1.0013 0.263563
1009.32 9.92769e-09 1.00191 0.262396
1000 0 1.0013 0.263453
1009.11 1.05345e-08 1.00192 0.258404
1009.11 1.05302e-08 1.00192 0.259013
1009.09 1.05067e-08 1.00192 0.257083
1009.08 1.04901e-08 1.00191 0.257531
1009.1 1.05307e-08 1.00192 0.259291
1009.27 1.07447e-08 1.00193 0.260615
1009.1 1.0534e-08 1.00192 0.259351
1009.08 1.04644e-08 1.00191 0.258155
1009.08 1.04942e-08 1.00191 0.257295
1009.08 1.05098e-08 1.00191 0.256537
1009.09 1.04983e-08 1.00192 0.256362
1009.08 1.04847e-08 1.00191 0.254695
1009.07 1.04455e-08 1.00191 0.258377
1009.09 1.05452e-08 1.00191 0.257277
1009.09 1.05308e-08 1.00191 0.255391
1009.1 1.07352e-08 1.00191 0.255673
1009.09 1.05353e-08 1.00191 0.255025
1009.11 1.06764e-08 1.00191 0.253235
1009.1 1.05298e-08 1.00192 0.259334
1009.11 1.05305e-08 1.00192 0.258997
1009.08 1.04987e-08 1.00191 0.257917
1009.08 1.05019e-08 1.00191 0.257043
1009.38 1.08386e-08 1.00195 0.261462
1009.2 1.06551e-08 1.00194 0.259734
1009.15 1.05858e-08 1.00193 0.256772
1009.09 1.0517e-08 1.00192 0.25641
1009.09 1.0505e-08 1.00191 0.254459
1009.1 1.05214e-08 1.00192 0.254104
1009.13 1.05464e-08 1.00192 0.253984
1009.11 1.05388e-08 1.00192 0.252777
1009.21 1.06829e-08 1.00194 0.261165
1009.21 1.06541e-08 1.00194 0.260654
1009.37 1.08494e-08 1.00195 0.26288
1009.21 1.0693e-08 1.00194 0.26176
1009.08 1.04715e-08 1.00191 0.258195
1009.08 1.04927e-08 1.00191 0.257599
1009.08 1.0504e-08 1.00191 0.256952
1009.08 1.05068e-08 1.00191 0.254616
1009.21 1.06751e-08 1.00194 0.260699
1009.18 1.06182e-08 1.00194 0.25791
1009.14 1.05534e-08 1.00193 0.253831
1009.09 1.05113e-08 1.00192 0.254464
1009.08 1.0513e-08 1.00191 0.253623
1009.12 1.05759e-08 1.00192 0.25266
1009.1 1.0539e-08 1.00192 0.252041
1009.09 1.05207e-08 1.00192 0.252271
1009.21 1.06472e-08 1.00194 0.260456
1009.22 1.0654e-08 1.00194 0.260177
1009.23 1.06656e-08 1.00194 0.260747
1009.36 1.08491e-08 1.00195 0.263126
1009.21 1.06941e-08 1.00194 0.262124
1009.09 1.05834e-08 1.00191 0.257135
1009.08 1.05044e-08 1.00191 0.255981
1009.07 1.04865e-08 1.00191 0.25289
1009.08 1.05282e-08 1.00191 0.252777
1009.2 1.06415e-08 1.00194 0.25954
1009.08 1.04982e-08 1.00192 0.250057
1009.17 1.0573e-08 1.00193 0.255577
1009.14 1.06235e-08 1.00193 0.251431
1009.11 1.06007e-08 1.00192 0.251422
1009.35 1.08551e-08 1.00195 0.263236
1009.21 1.06962e-08 1.00194 0.262501
1009.23 1.06634e-08 1.00194 0.261324
1009.21 1.06388e-08 1.00194 0.259759
1009.23 1.06621e-08 1.00194 0.260067
1009.21 1.06541e-08 1.00194 0.259415
1009.42 9.90548e-09 1.00191 0.262403
1009.38 1.08419e-08 1.00195 0.263379
1009.09 1.04679e-08 1.00192 0.255633
1009.22 1.07037e-08 1.00194 0.262144
1009.22 1.0693e-08 1.00194 0.261147
1009.23 1.06672e-08 1.00194 0.260466
1009.12 1.05387e-08 1.00192 0.255393
1009.11 1.05806e-08 1.00192 0.25305
1009.2 1.06435e-08 1.00194 0.258548
1009.16 1.05635e-08 1.00193 0.256168
1009.13 1.05514e-08 1.00193 0.25394
1009.37 1.08411e-08 1.00195 0.263355
1009.22 1.07005e-08 1.00194 0.262863
1009.22 1.06604e-08 1.00194 0.259723
1009.23 1.06783e-08 1.00194 0.261075
1009.23 1.06573e-08 1.00194 0.259961
1009.11 1.06643e-08 1.00192 0.254186
1009.11 1.04689e-08 1.00192 0.252363
1009.07 1.04607e-08 1.00192 0.2507
1009.19 1.05847e-08 1.00194 0.25636
1009.14 1.06029e-08 1.00193 0.253203