# vtk DataFile Version 2.0
Wound Healing Simulation
ASCII
DATASET UNSTRUCTURED_GRID
POINTS 3012 float
69.9759 18.75 4
67.2507 60.3285 4
69.976 18.75 2
73.0099 25.446 4
71.1327 20.9142 4
68.6801 16.6661 4
67.8276 19.9222 3.98901
67.2507 60.3286 2
71.1327 54.0858 4
68.6801 58.3339 4
65.6939 62.2254 4
65.314 59.0059 3.99051
74.6784 42.3946 4
73.7221 47.2057 4
69.9759 18.75 0
73.0099 25.446 2
68.6801 16.6661 2
71.1327 20.9142 2
67.8278 19.9226 2
74.6792 32.6053 4
73.7222 27.7943 4
72.1454 23.1494 4
70.6166 26.2215 3.98794
68.8881 21.9558 3.98861
67.2507 14.6715 4
66.6389 17.9669 3.98976
65.8043 21.0178 3.9849
67.2507 60.3285 0
71.1327 54.0858 2
68.6801 58.3339 2
65.694 62.2255 2
65.3141 59.006 2
72.1454 51.8506 4
69.9759 56.25 4
68.8391 53.1149 3.98863
64.0165 64.0165 4
66.6127 57.1381 3.98997
63.8872 60.7702 3.9914
63.5059 57.782 3.98597
60.3285 67.2507 4
74.6792 42.3947 2
73.7222 47.2057 2
74.9194 39.9526 4
74.2788 44.8158 4
72.1699 42.0852 3.98704
73.0099 49.554 4
71.2517 46.5971 3.98801
73.0099 25.446 0
71.1327 20.9142 0
68.6801 16.6661 0
67.8276 19.9222 0.0109932
74.6792 32.6053 2
73.7222 27.7943 2
67.2508 14.6715 2
72.1455 23.1494 2
70.6167 26.2226 2
66.6391 17.967 2
68.8884 21.9565 2
65.8045 21.0176 2
74.9197 35.0474 4
74.2794 30.1841 4
72.1866 32.9435 3.98738
71.2804 28.4322 3.98785
69.8181 24.059 3.9883
68.3538 26.9495 3.98224
66.7701 22.9279 3.9843
65.694 12.7746 4
65.3253 16.0982 3.99073
64.7203 19.1851 3.98563
63.8991 22.0233 3.98266
71.1327 54.0858 0
65.6939 62.2254 0
68.6801 58.3339 0
65.314 59.0059 0.00949139
72.1455 51.8506 2
69.9759 56.25 2
68.8394 53.1143 2
64.0165 64.0165 2
66.6129 57.1381 2
63.8873 60.7703 2
63.506 57.7822 2
62.2254 65.694 4
58.8941 65.4169 3.99253
69.7718 50.9891 3.98825
67.7861 55.1707 3.98936
66.6578 52.2141 3.98438
62.3372 62.431 3.99205
64.6678 56.0405 3.9861
62.2068 59.4151 3.98621
61.8325 56.696 3.98406
58.3339 68.6801 4
60.3285 67.2508 2
73.7221 47.2057 0
74.6784 42.3946 0
74.9197 39.9526 2
74.2794 44.8159 2
72.1699 42.085 2
73.0099 49.554 2
71.2517 46.5964 2
75 37.5 4
72.4068 39.802 3.98636
71.7846 44.3521 3.98768
69.8097 41.7894 3.98084
70.5778 48.8127 3.98813
68.9194 46.0155 3.98169
74.6792 32.6053 0
73.7222 27.7943 0
67.2507 14.6715 0
72.1454 23.1494 0
70.6166 26.2215 0.0120562
68.8881 21.9558 0.011389
66.6389 17.9669 0.0102445
65.8043 21.0178 0.0150967
74.9197 35.0474 2
74.2794 30.1841 2
72.1865 32.9438 2
71.2804 28.433 2
65.694 12.7745 2
65.3254 16.0982 2
69.8183 24.06 2
68.3537 26.9495 2
64.7204 19.1848 2
66.7702 22.9277 2
63.8993 22.0231 2
72.4147 35.2242 3.98652
71.8059 30.6768 3.98786
69.8458 33.2683 3.9812
68.9728 29.0372 3.98156
67.6188 24.9086 3.98338
66.206 27.6297 3.97997
64.0165 10.9835 4
64.7692 23.8205 3.98214
63.8913 14.3227 3.99149
63.5183 17.4356 3.98635
62.9179 20.306 3.98321
62.1093 22.9272 3.98158
60.6845 11.0944 3.9922
57.6129 11.4387 3.98735
72.1454 51.8506 0
69.9759 56.25 0
68.8391 53.1149 0.0113669
64.0165 64.0165 0
63.8872 60.7702 0.00859632
66.6127 57.1381 0.0100281
63.5059 57.782 0.0140308
62.2255 65.694 2
58.8943 65.417 2
69.772 50.9883 2
67.7864 55.1705 2
66.658 52.2143 2
62.3373 62.431 2
64.6679 56.0408 2
62.2068 59.4154 2
61.8326 56.6963 2
60.6691 63.9801 3.99229
57.0245 66.7374 3.99284
57.5581 63.6983 3.98747
67.5157 50.1798 3.98335
65.71 54.1803 3.98548
64.5516 51.3945 3.98181
60.7755 60.9477 3.9868
62.8318 55.0816 3.98437
60.6653 58.1743 3.98402
60.3405 55.8041 3.98327
56.25 69.9759 4
58.3339 68.6801 2
60.3285 67.2507 0
58.9214 9.65282 3.99254
62.2254 9.30607 4
73.0099 49.554 0
74.2788 44.8158 0
71.2517 46.5971 0.011988
72.1699 42.0852 0.0129602
74.9194 39.9526 0
75 37.5 2
72.4068 39.802 2
71.7846 44.3517 2
69.8096 41.7892 2
70.578 48.8118 2
68.9193 46.0152 2
72.4901 37.512 3.98606
70.0459 39.6571 3.97995
69.4368 43.9075 3.98136
67.607 41.4988 3.97827
68.2736 48.1088 3.98243
66.7215 45.4431 3.97948
74.9197 35.0474 0
74.2794 30.1841 0
72.1866 32.9435 0.0126227
71.2804 28.4322 0.0121469
65.694 12.7746 0
65.3253 16.0982 0.00927367
69.8181 24.059 0.0117042
68.3538 26.9495 0.017763
66.7701 22.9279 0.0157049
64.7203 19.1851 0.0143676
63.8991 22.0233 0.0173386
72.4147 35.2244 2
71.8059 30.6773 2
69.8457 33.2684 2
68.9726 29.0374 2
64.0165 10.9835 2
63.8914 14.3227 2
63.5184 17.4353 2
67.6188 24.9084 2
66.2059 27.6294 2
62.9181 20.3058 2
64.7692 23.8202 2
62.1093 22.9272 2
60.6846 11.0943 2
57.6129 11.4383 2
70.0629 35.3919 3.98055
69.4734 31.1491 3.98148
67.6653 33.5892 3.97859
66.7831 29.6192 3.97918
65.5364 25.6921 3.98112
64.162 28.2472 3.97924
62.3425 12.6513 3.99192
62.8741 24.6236 3.98129
62.2022 15.7736 3.98661
61.8224 18.6691 3.98413
61.2324 21.3236 3.98165
60.446 23.7083 3.98139
59.2474 12.7695 3.98683
55.8745 10.2256 3.98837
56.4067 13.1011 3.98449
69.7718 50.9891 0.0117505
62.2254 65.694 0
58.8941 65.4169 0.00747142
67.7861 55.1707 0.010643
66.6578 52.2141 0.0156236
62.3372 62.431 0.00794979
62.2068 59.4151 0.0137908
64.6678 56.0405 0.0138974
61.8325 56.696 0.0159393
60.6693 63.9802 2
57.0247 66.7375 2
57.5581 63.6987 2
67.5158 50.1799 2
65.7103 54.1806 2
64.5517 51.3948 2
60.7755 60.9482 2
62.8321 55.0819 2
60.6654 58.1747 2
60.3407 55.8043 2
55.07 67.9341 3.99316
59.2205 62.3745 3.98703
55.8039 64.9151 3.98819
56.3283 62.099 3.98471
65.3454 49.4151 3.98083
63.7194 53.3041 3.98327
62.4608 50.6651 3.9805
59.3378 59.5703 3.98472
61.0924 54.3265 3.9836
59.2986 57.0307 3.98255
59.2566 55.2034 3.98347
48.1021 68.5818 3.99
50.9479 69.9333 3.9937
54.0858 71.1327 4
56.25 69.976 2
58.3339 68.6801 0
57.0584 8.33282 3.993
60.3285 7.74928 4
58.9216 9.65276 2
62.2255 9.30602 2
70.5778 48.8127 0.0118669
71.7846 44.3521 0.01232
68.9194 46.0155 0.0183137
69.8097 41.7894 0.0191602
72.4068 39.802 0.0136363
75 37.5 0
72.49 37.5121 2
70.0458 39.6569 2
69.4367 43.9073 2
67.6069 41.4988 2
68.2736 48.1087 2
66.7213 45.4432 2
70.1338 37.5214 3.97973
67.8428 39.5128 3.9774
67.2344 43.4721 3.97894
65.5695 41.2126 3.97751
66.0814 47.4228 3.98013
64.6682 44.8542 3.9787
72.4147 35.2242 0.0134777
71.8059 30.6768 0.0121422
69.8458 33.2683 0.0188029
68.9728 29.0372 0.0184375
64.0165 10.9835 0
63.8913 14.3227 0.00851414
63.5183 17.4356 0.0136471
67.6188 24.9086 0.0166205
66.206 27.6297 0.0200266
64.7692 23.8205 0.0178555
62.9179 20.306 0.0167865
62.1093 22.9272 0.018417
60.6845 11.0944 0.00779937
57.6129 11.4387 0.0126513
70.0628 35.392 2
69.4732 31.1493 2
67.6651 33.589 2
66.7828 29.6191 2
62.3426 12.6513 2
62.2023 15.7733 2
61.8226 18.6689 2
65.5363 25.6919 2
64.1617 28.247 2
61.2325 21.3235 2
62.8741 24.6235 2
60.4459 23.7084 2
59.2474 12.7691 2
56.4067 13.1007 2
55.8745 10.2252 2
67.8794 35.5467 3.97809
67.2759 31.6197 3.97909
65.7114 33.9242 3.97763
64.6779 30.1858 3.97809
63.5549 26.4033 3.98026
62.2769 28.7664 3.97964
60.7772 14.2133 3.98665
61.0664 25.3208 3.98119
60.6184 17.1129 3.98476
60.2341 19.7975 3.98272
59.6791 22.2376 3.98058
59.0016 24.2988 3.9818
54.0374 9.12921 3.98917
57.9126 14.319 3.98466
54.7875 12.0008 3.98502
55.3148 14.6318 3.98336
67.5157 50.1798 0.0166465
57.0245 66.7374 0.00715827
60.6691 63.9801 0.00770607
57.5581 63.6983 0.0125284
65.71 54.1803 0.0145232
64.5516 51.3945 0.018189
60.7755 60.9477 0.0131994
60.6653 58.1743 0.0159797
62.8318 55.0816 0.0156318
60.3405 55.8041 0.0167335
55.0702 67.9342 2
59.2205 62.375 2
55.8039 64.9154 2
56.3283 62.0994 2
65.3454 49.4154 2
63.7197 53.3045 2
62.4608 50.6653 2
59.3379 59.5708 2
61.0927 54.3267 2
59.2988 57.031 2
59.2568 55.2035 2
53.0419 69.0017 3.99347
53.9659 66.0169 3.98884
57.8835 60.8813 3.98478
54.6839 63.2141 3.9852
55.214 60.6266 3.98347
63.2129 48.6715 3.97973
61.7596 52.5908 3.98216
60.2974 50.0357 3.97983
58.0245 58.2769 3.98335
59.3448 53.9674 3.98281
58.1386 55.8335 3.98114
50.1085 67.8599 3.98972
47.4623 66.586 3.98753
46.056 69.1612 3.99023
48.1022 68.5822 2
48.8022 70.7244 3.9939
50.9481 69.9334 2
51.8506 72.1454 4
54.0858 71.1327 2
56.25 69.9759 0
55.1027 7.13749 3.99334
58.3339 6.31992 4
57.0586 8.33273 2
60.3286 7.74926 2
58.9214 9.65282 0.00745675
62.2254 9.30607 0
68.2736 48.1088 0.0175729
69.4368 43.9075 0.0186446
66.7215 45.4431 0.0205185
67.607 41.4988 0.0217275
70.0459 39.6571 0.0200508
72.4901 37.512 0.0139383
70.1336 37.5213 2
67.8427 39.5127 2
67.2342 43.4721 2
65.5693 41.2127 2
66.0814 47.423 2
64.668 44.8543 2
67.9387 37.5218 3.97697
65.7996 39.3716 3.97675
65.1907 43.0296 3.97804
63.7728 40.9338 3.97755
63.9829 46.7246 3.97916
62.827 44.2243 3.97925
70.0629 35.3919 0.0194548
69.4734 31.1491 0.0185208
67.6653 33.5892 0.0214082
66.7831 29.6192 0.0208171
62.3425 12.6513 0.00807772
62.2022 15.7736 0.0133925
61.8224 18.6691 0.0158653
65.5364 25.6921 0.0188756
64.162 28.2472 0.0207627
62.8741 24.6236 0.0187097
61.2324 21.3236 0.0183456
60.446 23.7083 0.0186057
59.2474 12.7695 0.013171
56.4067 13.1011 0.0155133
55.8745 10.2256 0.0116301
67.8793 35.5465 2
67.2757 31.6196 2
65.7112 33.9239 2
64.6775 30.1855 2
60.7772 14.2129 2
60.6185 17.1125 2
60.2343 19.7974 2
63.5547 26.4031 2
62.2765 28.7663 2
59.6792 22.2377 2
61.0663 25.3208 2
59.0014 24.2991 2
57.9126 14.3186 2
55.3148 14.6315 2
54.0374 9.12878 2
54.7875 12.0003 2
65.8891 35.6653 3.97717
65.2008 32.1494 3.97788
64.3008 34.2462 3.97717
62.614 30.6266 3.97807
61.6722 27.058 3.98002
60.8731 29.1268 3.98135
59.314 15.6552 3.9848
59.3561 25.7769 3.9824
59.131 18.3378 3.98383
58.7542 20.8327 3.98126
58.3054 23.0696 3.97967
57.9932 24.6424 3.98268
52.1121 8.14799 3.98968
53.0581 11.0073 3.98596
56.6796 15.7272 3.98391
53.811 13.6675 3.98323
54.3792 15.9828 3.98326
55.07 67.9341 0.00683555
65.3454 49.4151 0.01917
55.8039 64.9151 0.0118062
59.2205 62.3745 0.0129683
56.3283 62.099 0.015286
63.7194 53.3041 0.0167273
62.4608 50.6651 0.0195043
59.3378 59.5703 0.0152823
59.2986 57.0307 0.0174516
61.0924 54.3265 0.0164021
59.2566 55.2034 0.016527
53.0421 69.0018 2
53.966 66.0173 2
57.8835 60.8818 2
54.6839 63.2146 2
55.214 60.6271 2
63.2129 48.6718 2
61.7599 52.591 2
60.2974 50.0358 2
58.0247 58.2774 2
59.3451 53.9675 2
58.1388 55.8336 2
52.0695 67.0032 3.98937
52.9527 64.2241 3.98583
56.6525 59.502 3.98382
[...]
POINT_DATA 3012
SCALARS rho_c_phif_kappa float 4
LOOKUP_TABLE default
1000 0 1.00035 0.239537
1000 0 1.00033 0.239728
1000 0 1.00035 0.239451
1000 0 1.00035 0.239616
1000 0 1.00035 0.23956
1000 0 1.00035 0.239523
1002.91 3.38009e-09 1.00036 0.239564
1000 0 1.00033 0.239722
1000 0 1.00033 0.239637
1000 0 1.00033 0.239667
1000 0 1.00035 0.239448
1002.91 3.35409e-09 1.00038 0.239461
1000 0 1.00035 0.239666
1000 0 1.00035 0.239475
1000 0 1.00035 0.239364
1000 0 1.00035 0.239523
1000 0 1.00035 0.239444
1000 0 1.00035 0.239468
1002.91 3.38245e-09 1.00036 0.2396
1000 0 1.00033 0.239785
1000 0 1.00035 0.239651
1000 0 1.00035 0.239586
1002.9 3.39469e-09 1.00036 0.239663
1002.91 3.38626e-09 1.00036 0.239599
1000 0 1.00035 0.239521
1002.91 3.37372e-09 1.00036 0.239539
1002.44 2.87098e-09 1.00037 0.239746
1000 0 1.00033 0.239717
1000 0 1.00034 0.239537
1000 0 1.00034 0.239538
1000 0 1.00033 0.239746
1002.91 3.35576e-09 1.00038 0.239462
1000 0 1.00035 0.239449
1000 0 1.00035 0.239423
1002.91 3.38645e-09 1.00037 0.239627
1000 0 1.00033 0.239748
1002.91 3.36496e-09 1.00037 0.239576
1002.92 3.34642e-09 1.00038 0.23952
1002.45 2.88561e-09 1.00037 0.239739
1000 0 1.00033 0.239813
1000 0 1.00033 0.239809
1000 0 1.00034 0.239613
1000 0 1.00033 0.239866
1000 0 1.00035 0.239537
1002.89 3.40136e-09 1.00038 0.239712
1000 0 1.00033 0.239651
1002.9 3.40208e-09 1.00037 0.239741
1000 0 1.00035 0.239433
1000 0 1.00035 0.239377
1000 0 1.00035 0.239364
1002.91 3.38009e-09 1.00036 0.239637
1000 0 1.00034 0.239755
1000 0 1.00035 0.239567
1000 0 1.00035 0.239451
1000 0 1.00035 0.239491
1002.9 3.39744e-09 1.00036 0.239701
1002.91 3.37575e-09 1.00036 0.239571
1002.9 3.38886e-09 1.00036 0.239641
1002.45 2.87039e-09 1.00037 0.239748
1000 0 1.00033 0.239817
1000 0 1.00035 0.239695
1002.89 3.39826e-09 1.00037 0.239717
1002.9 3.39656e-09 1.00036 0.239685
1002.9 3.39154e-09 1.00036 0.239633
1002.44 2.85736e-09 1.00037 0.239811
1002.44 2.86607e-09 1.00037 0.239776
1000 0 1.00035 0.239529
1002.92 3.36721e-09 1.00036 0.239539
1002.44 2.8761e-09 1.00037 0.239713
1002.49 2.91147e-09 1.00037 0.239649
1000 0 1.00033 0.239685
1000 0 1.00033 0.239743
1000 0 1.00033 0.239695
1002.91 3.35409e-09 1.00038 0.239463
1000 0 1.00033 0.239697
1000 0 1.00033 0.239699
1002.9 3.38892e-09 1.00038 0.239522
1000 0 1.00034 0.239608
1002.9 3.36686e-09 1.00038 0.239462
1002.91 3.34785e-09 1.00037 0.239552
1002.45 2.88508e-09 1.00037 0.239739
1000 0 1.00033 0.239791
1002.95 3.34298e-09 1.00038 0.239502
1002.9 3.39404e-09 1.00038 0.239641
1002.91 3.37687e-09 1.00038 0.239552
1002.44 2.86467e-09 1.00037 0.239774
1002.92 3.34137e-09 1.00037 0.239596
1002.45 2.88024e-09 1.00037 0.239763
1002.45 2.88907e-09 1.00037 0.239717
1002.49 2.9126e-09 1.00037 0.239708
1000 0 1.00033 0.239835
1000 0 1.00033 0.239813
1000 0 1.00033 0.23971
1000 0 1.00033 0.239785
1000 0 1.00033 0.239847
1000 0 1.00034 0.23966
1002.89 3.40383e-09 1.00037 0.239711
1000 0 1.00034 0.239573
1002.9 3.40456e-09 1.00037 0.239683
1000 0 1.00033 0.239859
1002.89 3.39898e-09 1.00038 0.239675
1002.9 3.40267e-09 1.00037 0.239745
1002.44 2.85373e-09 1.00037 0.2397
1002.9 3.39961e-09 1.00037 0.239672
1002.44 2.85402e-09 1.00037 0.239804
1000 0 1.00035 0.239659
1000 0 1.00035 0.239483
1000 0 1.00035 0.239382
1000 0 1.00035 0.2394
1002.9 3.39469e-09 1.00036 0.239737
1002.91 3.38626e-09 1.00036 0.239682
1002.91 3.37372e-09 1.00036 0.239604
1002.44 2.87098e-09 1.00037 0.239752
1000 0 1.00033 0.239833
1000 0 1.00035 0.23962
1002.89 3.40078e-09 1.00037 0.239708
1002.89 3.39919e-09 1.00036 0.239717
1000 0 1.00034 0.239584
1002.92 3.36887e-09 1.00036 0.239574
1002.9 3.39426e-09 1.00036 0.239677
1002.44 2.8567e-09 1.00037 0.239799
1002.45 2.8756e-09 1.00037 0.239717
1002.44 2.86539e-09 1.00037 0.23978
1002.49 2.91185e-09 1.00037 0.239649
1002.89 3.39784e-09 1.00038 0.239709
1002.89 3.39785e-09 1.00036 0.239695
1002.44 2.85477e-09 1.00037 0.239733
1002.44 2.85438e-09 1.00037 0.239791
1002.44 2.86147e-09 1.00037 0.239799
1002.48 2.90639e-09 1.00037 0.239645
1000 0 1.00033 0.23976
1002.49 2.90995e-09 1.00037 0.239658
1002.93 3.3608e-09 1.00038 0.239465
1002.44 2.88011e-09 1.00037 0.239707
1002.49 2.91365e-09 1.00037 0.239635
1002.49 2.91175e-09 1.00037 0.239467
1002.94 3.3547e-09 1.00038 0.239505
1002.42 2.88051e-09 1.00037 0.239796
1000 0 1.00033 0.239688
1000 0 1.00033 0.239684
1002.91 3.38645e-09 1.00038 0.239525
1000 0 1.00033 0.239767
1002.92 3.34642e-09 1.00038 0.23947
1002.91 3.36496e-09 1.00038 0.239463
1002.45 2.88561e-09 1.00037 0.239739
1000 0 1.00033 0.239791
1002.95 3.34403e-09 1.00038 0.239498
1002.9 3.39665e-09 1.00037 0.239651
1002.9 3.37904e-09 1.00037 0.239569
1002.44 2.86411e-09 1.00037 0.239788
1002.92 3.34261e-09 1.00038 0.239483
1002.45 2.87968e-09 1.00037 0.239765
1002.45 2.88853e-09 1.00037 0.23972
1002.49 2.91293e-09 1.00037 0.239709
1002.94 3.34093e-09 1.00038 0.239494
1002.96 3.34567e-09 1.00038 0.239504
1002.43 2.88508e-09 1.00037 0.239774
1002.44 2.8582e-09 1.00037 0.239809
1002.45 2.87169e-09 1.00037 0.239759
1002.49 2.91212e-09 1.00037 0.239649
1002.44 2.88946e-09 1.00037 0.239743
1002.49 2.9127e-09 1.00037 0.239709
1002.49 2.91295e-09 1.00037 0.239681
1002.49 2.91995e-09 1.00037 0.239534
1000 0 1.00033 0.239856
1000 0 1.00033 0.239835
1000 0 1.00033 0.239813
1002.96 3.35492e-09 1.00038 0.239505
1000 0 1.00033 0.239786
1000 0 1.00033 0.239694
1000 0 1.00033 0.23974
1002.9 3.40208e-09 1.00038 0.239641
1002.89 3.40136e-09 1.00038 0.239679
1000 0 1.00033 0.239836
1000 0 1.00033 0.239871
1002.88 3.4014e-09 1.00038 0.239684
1002.89 3.40514e-09 1.00037 0.239691
1002.44 2.85298e-09 1.00037 0.239702
1002.9 3.40214e-09 1.00038 0.239604
1002.44 2.85335e-09 1.00037 0.239803
1002.89 3.39735e-09 1.00038 0.239703
1002.44 2.8535e-09 1.00037 0.239661
1002.44 2.85393e-09 1.00037 0.239755
1002.48 2.90497e-09 1.00037 0.239616
1002.44 2.85533e-09 1.00037 0.239825
1002.48 2.90691e-09 1.00037 0.239675
1000 0 1.00033 0.239855
1000 0 1.00035 0.239542
1002.89 3.39826e-09 1.00037 0.239731
1002.9 3.39656e-09 1.00036 0.239749
1000 0 1.00033 0.239716
1002.92 3.36721e-09 1.00037 0.239608
1002.9 3.39154e-09 1.00036 0.239718
1002.44 2.85736e-09 1.00037 0.239788
1002.44 2.86607e-09 1.00037 0.239785
1002.44 2.8761e-09 1.00037 0.239721
1002.49 2.91147e-09 1.00037 0.239649
1002.88 3.40046e-09 1.00038 0.239697
1002.89 3.40034e-09 1.00036 0.239728
1002.44 2.85401e-09 1.00037 0.239732
1002.44 2.85375e-09 1.00037 0.23979
1000 0 1.00033 0.239762
1002.92 3.36223e-09 1.00037 0.23954
1002.44 2.87968e-09 1.00037 0.239712
1002.44 2.86077e-09 1.00037 0.239795
1002.48 2.90679e-09 1.00037 0.239632
1002.49 2.91408e-09 1.00037 0.239628
1002.49 2.91029e-09 1.00037 0.239664
1002.49 2.91192e-09 1.00037 0.239471
1002.94 3.35596e-09 1.00038 0.239505
1002.42 2.87994e-09 1.00037 0.239785
1002.44 2.8552e-09 1.00037 0.239686
1002.44 2.854e-09 1.00037 0.23977
1002.48 2.90242e-09 1.00037 0.239632
1002.48 2.90329e-09 1.00037 0.239624
1002.48 2.9087e-09 1.00037 0.239649
1002.48 2.90251e-09 1.00037 0.239494
1002.93 3.35632e-09 1.00038 0.239489
1002.48 2.90916e-09 1.00037 0.239481
1002.44 2.8823e-09 1.00037 0.239738
1002.49 2.91468e-09 1.00037 0.239659
1002.49 2.91548e-09 1.00037 0.239448
1002.48 2.90678e-09 1.00037 0.239262
1002.43 2.8816e-09 1.00037 0.239788
1002.42 2.87881e-09 1.00037 0.239803
1002.5 2.91459e-09 1.00037 0.239782
1002.9 3.39404e-09 1.00038 0.239578
1000 0 1.00033 0.23979
1002.95 3.34298e-09 1.00038 0.239494
1002.91 3.37687e-09 1.00038 0.239482
1002.44 2.86467e-09 1.00037 0.239801
1002.92 3.34137e-09 1.00038 0.239483
1002.45 2.88907e-09 1.00037 0.239723
1002.45 2.88024e-09 1.00037 0.239768
1002.49 2.9126e-09 1.00037 0.239709
1002.93 3.34205e-09 1.00038 0.239494
1002.96 3.34665e-09 1.00038 0.239498
1002.43 2.88439e-09 1.00037 0.239781
1002.44 2.85755e-09 1.00037 0.239818
1002.45 2.87113e-09 1.00037 0.239769
1002.49 2.91237e-09 1.00037 0.239648
1002.44 2.88883e-09 1.00037 0.239747
1002.49 2.91293e-09 1.00037 0.239716
1002.49 2.91337e-09 1.00037 0.239682
1002.49 2.92015e-09 1.00037 0.239523
1002.97 3.34929e-09 1.00038 0.239502
1002.43 2.88735e-09 1.00037 0.23977
1002.42 2.88341e-09 1.00037 0.239775
1002.5 2.91423e-09 1.00037 0.239808
1002.48 2.91753e-09 1.00037 0.239678
1002.49 2.91702e-09 1.00037 0.239659
1002.48 2.90817e-09 1.00037 0.239431
1002.5 2.91288e-09 1.00037 0.239737
1002.49 2.91969e-09 1.00037 0.239497
1002.5 2.92741e-09 1.00037 0.239479
1002.49 2.91832e-09 1.00037 0.239351
1002.4 2.87574e-09 1.00037 0.239771
1003 3.35751e-09 1.00038 0.239493
1000 0 1.00033 0.239875
1000 0 1.00033 0.239857
1000 0 1.00033 0.239836
1002.97 3.35754e-09 1.00038 0.239496
1000 0 1.00033 0.239813
1002.95 3.35607e-09 1.00038 0.23951
1000 0 1.00033 0.239786
1002.9 3.39961e-09 1.00038 0.239617
1002.9 3.40267e-09 1.00038 0.239659
1002.44 2.85402e-09 1.00037 0.239802
1002.44 2.85373e-09 1.00037 0.239704
1002.89 3.39898e-09 1.00038 0.239693
1000 0 1.00033 0.239867
1002.89 3.39985e-09 1.00038 0.239698
1002.45 2.85274e-09 1.00037 0.239662
1002.44 2.85316e-09 1.00037 0.239756
1002.48 2.90544e-09 1.00037 0.239614
1002.44 2.85475e-09 1.00037 0.239827
1002.48 2.90736e-09 1.00037 0.239674
1002.44 2.85351e-09 1.00037 0.239659
1002.48 2.90523e-09 1.00037 0.239586
1002.48 2.90471e-09 1.00037 0.239649
1002.48 2.8995e-09 1.00037 0.239525
1002.48 2.9071e-09 1.00037 0.239688
1002.48 2.90169e-09 1.00037 0.239524
1002.89 3.39784e-09 1.00038 0.239683
1002.89 3.39785e-09 1.00036 0.239762
1002.44 2.85477e-09 1.00037 0.239729
1002.44 2.85438e-09 1.00037 0.23979
1000 0 1.00033 0.239764
1002.93 3.3608e-09 1.00037 0.239578
1002.44 2.88011e-09 1.00037 0.239718
1002.44 2.86147e-09 1.00037 0.239791
1002.48 2.90639e-09 1.00037 0.23962
1002.49 2.90995e-09 1.00037 0.239669
1002.49 2.91365e-09 1.00037 0.239621
1002.49 2.91175e-09 1.00037 0.239475
1002.94 3.3547e-09 1.00038 0.239505
1002.42 2.88051e-09 1.00037 0.239775
1002.45 2.85437e-09 1.00037 0.239686
1002.44 2.85337e-09 1.00037 0.239767
1002.48 2.90285e-09 1.00037 0.239627
1002.48 2.90377e-09 1.00037 0.239628
1002.93 3.35766e-09 1.00038 0.239487
1002.44 2.88181e-09 1.00037 0.239736
1002.49 2.91514e-09 1.00037 0.239661
1002.48 2.9091e-09 1.00037 0.239654
1002.48 2.90278e-09 1.00037 0.239484
1002.49 2.9158e-09 1.00037 0.23944
1002.48 2.90934e-09 1.00037 0.239483
1002.48 2.90709e-09 1.00037 0.239255
1002.43 2.88101e-09 1.00037 0.239782
1002.5 2.91503e-09 1.00037 0.23979
1002.42 2.87823e-09 1.00037 0.239788
1002.48 2.90141e-09 1.00037 0.239607
1002.48 2.90235e-09 1.00037 0.239632
1002.48 2.90117e-09 1.00037 0.239543
1002.48 2.90246e-09 1.00037 0.2395
1002.48 2.90635e-09 1.00037 0.239466
1002.48 2.9048e-09 1.00037 0.23935
1002.44 2.88265e-09 1.00037 0.239767
1002.48 2.90514e-09 1.00037 0.239275
1002.5 2.91427e-09 1.00037 0.239732
1002.49 2.92277e-09 1.00037 0.239458
1002.49 2.90857e-09 1.00037 0.239196
1002.48 2.90489e-09 1.00037 0.239048
1002.41 2.87655e-09 1.00037 0.239811
1002.5 2.9145e-09 1.00037 0.239794
1002.5 2.91524e-09 1.00037 0.239775
1002.49 2.92021e-09 1.00037 0.239635
1002.44 2.8582e-09 1.00037 0.239826
1002.96 3.34567e-09 1.00038 0.239491
1002.94 3.34093e-09 1.00038 0.239493
1002.43 2.88508e-09 1.00037 0.239789
1002.45 2.87169e-09 1.00037 0.239779
1002.49 2.91212e-09 1.00037 0.239648
1002.44 2.88946e-09 1.00037 0.239751
1002.49 2.91295e-09 1.00037 0.239682
1002.49 2.9127e-09 1.00037 0.239724
1002.49 2.91995e-09 1.00037 0.239512
1002.97 3.35018e-09 1.00038 0.239495
1002.43 2.88664e-09 1.00037 0.239774
1002.42 2.88273e-09 1.00037 0.239785
1002.5 2.91449e-09 1.00037 0.239805
1002.48 2.9181e-09 1.00037 0.239673
1002.49 2.91741e-09 1.00037 0.239662
1002.48 2.90882e-09 1.00037 0.23943
1002.5 2.9132e-09 1.00037 0.239735
1002.49 2.9199e-09 1.00037 0.239505
1002.5 2.92779e-09 1.00037 0.239475
1002.49 2.91861e-09 1.00037 0.239373
1002.98 3.35302e-09 1.00038 0.239499
1002.42 2.88116e-09 1.00037 0.239779
1002.5 2.91301e-09 1.00037 0.2398
1002.5 2.91364e-09 1.00037 0.239817
1002.49 2.92126e-09 1.00037 0.239646
1002.48 2.84961e-09 1.00037 0.239491
1002.49 2.90591e-09 1.00037 0.239422
1002.48 2.88187e-09 1.00037 0.23916
1002.5 2.92989e-09 1.00037 0.23953
1002.49 2.90318e-09 1.00037 0.239232
1002.49 2.89616e-09 1.00037 0.239268
1002.4 2.87762e-09 1.00037 0.239781
1002.51 2.9163e-09 1.00037 0.2399
1002.39 2.87333e-09 1.00037 0.239758
1002.4 2.87516e-09 1.00037 0.239774
1003.01 3.36188e-09 1.00037 0.239592
1002.99 3.35822e-09 1.00037 0.239559
1000 0 1.00035 0.239682
1000 0 1.00033 0.239876
1000 0 1.00033 0.239857
1002.98 3.36145e-09 1.00038 0.239488
1000 0 1.00033 0.239837
1002.97 3.35853e-09 1.00038 0.239506
1000 0 1.00033 0.239812
1002.96 3.35492e-09 1.00038 0.239516
1000 0 1.00033 0.239786
1002.44 2.85533e-09 1.00037 0.239828
1002.44 2.85393e-09 1.00037 0.239757
1002.48 2.90691e-09 1.00037 0.239673
1002.48 2.90497e-09 1.00037 0.239611
1002.44 2.8535e-09 1.00037 0.239663
1002.89 3.39735e-09 1.00038 0.239696
1002.44 2.85264e-09 1.00037 0.239657
1002.48 2.90564e-09 1.00037 0.239585
1002.48 2.90503e-09 1.00037 0.239647
1002.48 2.89949e-09 1.00037 0.239518
1002.48 2.90736e-09 1.00037 0.239686
1002.48 2.90156e-09 1.00037 0.239522
1002.48 2.91153e-09 1.00037 0.239583
1002.48 2.89806e-09 1.00037 0.239526
1002.48 2.91048e-09 1.00037 0.239521
1002.47 2.9057e-09 1.00037 0.23943
1002.48 2.91555e-09 1.00037 0.239516
1002.48 2.90613e-09 1.00037 0.239349
1002.44 2.8552e-09 1.00037 0.239688
1002.44 2.854e-09 1.00037 0.239764
1002.48 2.90242e-09 1.00037 0.239623
1002.48 2.90329e-09 1.00037 0.239631
1002.93 3.35632e-09 1.00038 0.239485
1002.44 2.8823e-09 1.00037 0.239735
1002.49 2.91468e-09 1.00037 0.239664
1002.48 2.9087e-09 1.00037 0.239659
1002.48 2.90251e-09 1.00037 0.239474
1002.48 2.90916e-09 1.00037 0.239485
1002.49 2.91548e-09 1.00037 0.239433
1002.48 2.90678e-09 1.00037 0.239247
1002.43 2.8816e-09 1.00037 0.239776
1002.5 2.91459e-09 1.00037 0.239798
1002.42 2.87881e-09 1.00037 0.239774
1002.48 2.90179e-09 1.00037 0.239607
1002.48 2.90262e-09 1.00037 0.239628
1002.48 2.90123e-09 1.00037 0.239538
1002.48 2.90247e-09 1.00037 0.239499
1002.44 2.88207e-09 1.00037 0.239765
1002.5 2.91469e-09 1.00037 0.239733
1002.49 2.92318e-09 1.00037 0.239462
1002.48 2.90636e-09 1.00037 0.239475
1002.48 2.9046e-09 1.00037 0.239334
1002.49 2.90893e-09 1.00037 0.239182
1002.48 2.90506e-09 1.00037 0.239282
1002.48 2.90473e-09 1.00037 0.239043
1002.5 2.91488e-09 1.00037 0.239801
1002.49 2.92051e-09 1.00037 0.239639
1002.41 2.87596e-09 1.00037 0.239797
1002.5 2.91563e-09 1.00037 0.239779
1002.48 2.90726e-09 1.00037 0.239542
1002.48 2.89843e-09 1.00037 0.239508
1002.47 2.89102e-09 1.00037 0.239488
1002.47 2.87891e-09 1.00037 0.239385
1002.48 2.89707e-09 1.00037 0.239277
1002.48 2.87145e-09 1.00037 0.239177
1002.5 2.91409e-09 1.00037 0.239778
1002.48 2.89241e-09 1.00037 0.239054
1002.49 2.92769e-09 1.00037 0.239561
1002.49 2.90114e-09 1.00037 0.239201
1002.49 2.91699e-09 1.00037 0.238945
1002.48 2.91905e-09 1.00037 0.238849
1002.41 2.87314e-09 1.00037 0.239808
1002.5 2.91628e-09 1.00037 0.239807
1002.49 2.92054e-09 1.00037 0.239674
1002.49 2.92192e-09 1.00037 0.23957
1002.49 2.91731e-09 1.00037 0.239545
1002.97 3.34929e-09 1.00038 0.239489
1002.48 2.91753e-09 1.00037 0.239667
1002.42 2.88341e-09 1.00037 0.239795
1002.43 2.88735e-09 1.00037 0.239779
1002.5 2.91423e-09 1.00037 0.239802
1002.49 2.91702e-09 1.00037 0.239665
1002.48 2.90817e-09 1.00037 0.239429
1002.5 2.91288e-09 1.00037 0.239733
1002.5 2.92741e-09 1.00037 0.239471
1002.49 2.91969e-09 1.00037 0.239513
1002.49 2.91832e-09 1.00037 0.239394
1002.98 3.35384e-09 1.00038 0.239493
1002.42 2.88052e-09 1.00037 0.239789
1002.5 2.91325e-09 1.00037 0.239796
1002.5 2.91387e-09 1.00037 0.239815
1002.49 2.92134e-09 1.00037 0.239647
1002.48 2.8479e-09 1.00037 0.239484
1002.49 2.90567e-09 1.00037 0.239419
1002.48 2.88011e-09 1.00037 0.23915
1002.5 2.93014e-09 1.00037 0.239533
1002.49 2.90314e-09 1.00037 0.239261
1002.49 2.89637e-09 1.00037 0.239272
1002.41 2.8795e-09 1.00037 0.239783
1002.5 2.914e-09 1.00037 0.239839
1002.49 2.92595e-09 1.00037 0.239628
1002.49 2.9261e-09 1.00037 0.239645
1002.49 2.91866e-09 1.00037 0.239536
1002.48 3.19314e-09 1.00037 0.239299
1002.49 2.90068e-09 1.00037 0.239086
1002.48 3.1027e-09 1.00037 0.238789
1002.49 2.89169e-09 1.00037 0.239312
1002.49 2.93809e-09 1.00037 0.239076
1002.4 2.87704e-09 1.00037 0.239786
1002.51 2.91581e-09 1.00037 0.239878
1002.51 2.9164e-09 1.00037 0.239902
1002.49 2.92174e-09 1.00037 0.239716
1002.51 2.91715e-09 1.00037 0.239905
1002.39 2.87038e-09 1.00037 0.239748
1002.39 2.87276e-09 1.00037 0.239761
1003.01 3.36725e-09 1.00037 0.239587
1002.4 2.87574e-09 1.00037 0.239777
1003 3.36249e-09 1.00037 0.239613
1000 0 1.00035 0.239693
1003 3.35751e-09 1.00037 0.239605
1000 0 1.00034 0.239752
1000 0 1.00033 0.239876
1002.99 3.36583e-09 1.00038 0.239479
1002.98 3.36228e-09 1.00038 0.239496
1000 0 1.00033 0.239858
1000 0 1.00033 0.239837
1002.97 3.35754e-09 1.00038 0.239515
1000 0 1.00033 0.239811
1002.48 2.9071e-09 1.00037 0.239683
1002.48 2.90471e-09 1.00037 0.239646
1002.48 2.90169e-09 1.00037 0.239521
1002.48 2.8995e-09 1.00037 0.239512
1002.48 2.90523e-09 1.00037 0.239584
1002.44 2.85351e-09 1.00037 0.239656
1002.48 2.91219e-09 1.00037 0.239583
1002.48 2.89872e-09 1.00037 0.239525
1002.48 2.91113e-09 1.00037 0.239521
1002.48 2.90726e-09 1.00037 0.239423
1002.48 2.91633e-09 1.00037 0.239514
1002.48 2.90761e-09 1.00037 0.239338
1002.48 2.8446e-09 1.00037 0.239531
1002.48 2.87431e-09 1.00037 0.239493
1002.47 2.82353e-09 1.00037 0.239369
1002.47 2.83292e-09 1.00037 0.239373
1002.47 2.81179e-09 1.00037 0.239316
1002.47 2.82983e-09 1.00037 0.239167
1002.48 2.90141e-09 1.00037 0.239606
1002.48 2.90235e-09 1.00037 0.239625
1002.48 2.90117e-09 1.00037 0.239534
1002.48 2.90246e-09 1.00037 0.239498
1002.44 2.88265e-09 1.00037 0.239763
1002.5 2.91427e-09 1.00037 0.239733
1002.49 2.92277e-09 1.00037 0.239464
1002.48 2.90635e-09 1.00037 0.239485
1002.48 2.9048e-09 1.00037 0.239318
1002.48 2.90514e-09 1.00037 0.23929
1002.49 2.90857e-09 1.00037 0.239168
1002.48 2.90489e-09 1.00037 0.239035
1002.5 2.9145e-09 1.00037 0.239808
1002.49 2.92021e-09 1.00037 0.239643
1002.41 2.87655e-09 1.00037 0.239784
1002.5 2.91524e-09 1.00037 0.239782
1002.48 2.90815e-09 1.00037 0.239543
1002.48 2.8993e-09 1.00037 0.239512
1002.47 2.89254e-09 1.00037 0.23949
1002.47 2.88035e-09 1.00037 0.239386
1002.5 2.91444e-09 1.00037 0.239783
1002.49 2.92805e-09 1.00037 0.239567
1002.49 2.90165e-09 1.00037 0.239194
1002.48 2.89815e-09 1.00037 0.239294
1002.48 2.87333e-09 1.00037 0.239177
1002.49 2.91766e-09 1.00037 0.238946
1002.48 2.89397e-09 1.00037 0.239059
1002.48 2.92019e-09 1.00037 0.238858
1002.49 2.92074e-09 1.00037 0.239674
1002.49 2.9176e-09 1.00037 0.239542
1002.49 2.92229e-09 1.00037 0.239566
1002.41 2.87258e-09 1.00037 0.239797
1002.5 2.91653e-09 1.00037 0.239814
1002.47 2.87528e-09 1.00037 0.239481
1002.47 2.9142e-09 1.00037 0.239423
1002.47 2.95177e-09 1.00037 0.239202
1002.48 2.95687e-09 1.00037 0.239048
1002.49 2.92567e-09 1.00037 0.239655
1002.47 2.91939e-09 1.00037 0.238694
1002.49 2.89115e-09 1.00037 0.239337
1002.49 2.93606e-09 1.00037 0.238931
1002.48 2.88089e-09 1.00037 0.238732
1002.4 2.87119e-09 1.00037 0.239789
1002.51 2.92109e-09 1.00037 0.239859
1002.49 2.92168e-09 1.00037 0.239579
1002.49 2.91563e-09 1.00037 0.239565
1002.49 2.91413e-09 1.00037 0.23941
1002.49 2.91143e-09 1.00037 0.239476
1002.98 3.35302e-09 1.00038 0.239486
1002.42 2.88116e-09 1.00037 0.239798
1002.48 2.84961e-09 1.00037 0.239476
1002.5 2.91364e-09 1.00037 0.239813
1002.5 2.91301e-09 1.00037 0.239792
1002.49 2.92126e-09 1.00037 0.239649
1002.49 2.90591e-09 1.00037 0.239417
1002.48 2.88187e-09 1.00037 0.23914
1002.5 2.92989e-09 1.00037 0.239537
1002.49 2.89616e-09 1.00037 0.239277
1002.49 2.90318e-09 1.00037 0.239288
1002.41 2.87889e-09 1.00037 0.239791
1002.5 2.9142e-09 1.00037 0.239838
1002.49 2.92598e-09 1.00037 0.239634
1002.49 2.92616e-09 1.00037 0.239642
1002.49 2.9187e-09 1.00037 0.239531
1002.48 3.20551e-09 1.00037 0.239276
1002.49 2.90254e-09 1.00037 0.239099
1002.49 3.11496e-09 1.00037 0.238782
1002.49 2.89188e-09 1.00037 0.239307