# vtk DataFile Version 2.0
Wound Healing Simulation
ASCII
DATASET UNSTRUCTURED_GRID
POINTS 3012 float
69.9759 18.75 4
67.2507 60.3285 4
69.976 18.75 2
73.0099 25.446 4
71.1327 20.9142 4
68.6801 16.6661 4
67.8274 19.9255 3.98667
67.2507 60.3286 2
71.1327 54.0858 4
68.6801 58.3339 4
65.6939 62.2254 4
65.3139 59.0033 3.98768
74.6784 42.3946 4
73.7221 47.2057 4
69.9759 18.75 0
73.0099 25.446 2
68.6801 16.6661 2
71.1327 20.9142 2
67.8279 19.9274 2
74.6792 32.6053 4
73.7222 27.7943 4
72.1454 23.1494 4
70.6154 26.2223 3.98541
68.8875 21.9587 3.98634
67.2507 14.6715 4
66.639 17.9701 3.9873
65.8021 21.023 3.98062
67.2507 60.3285 0
71.1327 54.0858 2
68.6801 58.3339 2
65.694 62.2255 2
65.3146 59.0023 2
72.1454 51.8506 4
69.9759 56.25 4
68.8381 53.1128 3.9858
64.0165 64.0165 4
66.6125 57.1353 3.98734
63.8873 60.7682 3.98916
63.5045 57.7772 3.9826
60.3285 67.2507 4
74.6792 42.3947 2
73.7222 47.2057 2
74.9194 39.9526 4
74.2788 44.8158 4
72.1689 42.0857 3.98368
73.0099 49.554 4
71.2504 46.5977 3.98498
73.0099 25.446 0
71.1327 20.9142 0
68.6801 16.6661 0
67.8274 19.9255 0.0133275
74.6792 32.6053 2
73.7222 27.7943 2
67.2508 14.6715 2
72.1455 23.1494 2
70.6154 26.2229 2
66.6397 17.9714 2
68.8878 21.9604 2
65.802 21.0225 2
74.9197 35.0474 4
74.2794 30.1841 4
72.1855 32.9434 3.98408
71.2794 28.4321 3.98535
69.8171 24.061 3.98588
68.3498 26.952 3.97686
66.7669 22.9326 3.97908
65.694 12.7746 4
65.3255 16.101 3.98842
64.7189 19.1904 3.98213
63.8941 22.0311 3.97707
71.1327 54.0858 0
65.6939 62.2254 0
68.6801 58.3339 0
65.3139 59.0033 0.0123248
72.1455 51.8506 2
69.9759 56.25 2
68.8384 53.1109 2
64.0165 64.0165 2
66.6133 57.1337 2
63.8879 60.7677 2
63.5047 57.778 2
62.2254 65.694 4
58.895 65.4155 3.9926
69.7704 50.9881 3.98535
67.7855 55.168 3.98664
66.6535 52.2105 3.97843
62.3374 62.4294 3.99084
64.6657 56.0359 3.98231
62.206 59.4106 3.98333
61.8292 56.6895 3.97974
58.3339 68.6801 4
60.3285 67.2508 2
73.7221 47.2057 0
74.6784 42.3946 0
74.9197 39.9526 2
74.2794 44.8159 2
72.1687 42.0857 2
73.0099 49.554 2
71.2504 46.5975 2
75 37.5 4
72.4059 39.8023 3.98321
71.7835 44.3529 3.98442
69.806 41.79 3.9754
70.5764 48.8128 3.98517
68.9153 46.0153 3.97644
74.6792 32.6053 0
73.7222 27.7943 0
67.2507 14.6715 0
72.1454 23.1494 0
70.6154 26.2223 0.0145861
68.8875 21.9587 0.0136559
66.639 17.9701 0.0126987
65.8021 21.023 0.0193812
74.9197 35.0474 2
74.2794 30.1841 2
72.1854 32.9434 2
71.2794 28.4322 2
65.694 12.7745 2
65.3262 16.1015 2
69.8172 24.0622 2
68.3497 26.9521 2
64.7191 19.1895 2
66.7666 22.9325 2
63.894 22.0305 2
72.4137 35.2242 3.98327
71.8049 30.6766 3.98506
69.8421 33.2685 3.97575
68.9693 29.0384 3.97706
67.6148 24.9123 3.97763
66.1983 27.6342 3.97358
64.0165 10.9835 4
64.7624 23.8279 3.97552
63.8915 14.3246 3.98964
63.5178 17.4405 3.98379
62.9145 20.3136 3.97843
62.1008 22.9375 3.97512
60.6848 11.0957 3.99154
57.6134 11.4412 3.9864
72.1454 51.8506 0
69.9759 56.25 0
68.8381 53.1128 0.014199
64.0165 64.0165 0
63.8873 60.7682 0.0108411
66.6125 57.1353 0.012661
63.5045 57.7772 0.017398
62.2255 65.694 2
58.8953 65.4156 2
69.7706 50.9867 2
67.7862 55.166 2
66.6534 52.2105 2
62.3379 62.4291 2
64.6659 56.0366 2
62.2061 59.4114 2
61.8295 56.6904 2
60.6696 63.9785 3.99182
57.0256 66.7363 3.9932
57.559 63.6962 3.98719
67.5108 50.1773 3.977
65.7068 54.176 3.98053
64.543 51.3884 3.9745
60.7752 60.9438 3.98449
62.8274 55.0749 3.97953
60.663 58.1684 3.97997
60.3353 55.7958 3.97857
56.25 69.9759 4
58.3339 68.6801 2
60.3285 67.2507 0
58.9219 9.65405 3.99222
62.2254 9.30607 4
73.0099 49.554 0
74.2788 44.8158 0
71.2504 46.5977 0.0150238
72.1689 42.0857 0.0163228
74.9194 39.9526 0
75 37.5 2
72.4058 39.8024 2
71.7834 44.3527 2
69.8059 41.79 2
70.5765 48.812 2
68.9152 46.015 2
72.4892 37.5121 3.98314
70.0424 39.6576 3.97438
69.4329 43.9079 3.97608
67.6 41.4987 3.97201
68.269 48.1075 3.97659
66.7139 45.4416 3.97318
74.9197 35.0474 0
74.2794 30.1841 0
72.1855 32.9434 0.0159192
71.2794 28.4321 0.0146483
65.694 12.7746 0
65.3255 16.101 0.0115758
69.8171 24.061 0.0141245
68.3498 26.952 0.023144
66.7669 22.9326 0.0209215
64.7189 19.1904 0.0178676
63.8941 22.0311 0.0229281
72.4137 35.2241 2
71.805 30.6765 2
69.842 33.2687 2
68.9693 29.0386 2
64.0165 10.9835 2
63.892 14.3249 2
63.5181 17.4395 2
67.6146 24.9124 2
66.1982 27.6341 2
62.9147 20.3127 2
64.7621 23.8275 2
62.1008 22.937 2
60.6853 11.096 2
57.6135 11.4405 2
70.0592 35.3922 3.97468
69.47 31.1496 3.97679
67.6582 33.5907 3.97217
66.7766 29.622 3.97374
65.5284 25.6985 3.97417
64.1504 28.2541 3.9727
62.3427 12.6528 3.99064
62.8631 24.6339 3.97365
62.2022 15.7778 3.9845
61.8206 18.6758 3.98037
61.2263 21.3335 3.97601
60.4339 23.7207 3.97449
59.2476 12.7726 3.98483
55.8752 10.2279 3.98784
56.4066 13.1042 3.9832
69.7704 50.9881 0.0146526
62.2254 65.694 0
58.895 65.4155 0.00739567
67.7855 55.168 0.0133568
66.6535 52.2105 0.0215672
62.3374 62.4294 0.00916283
62.206 59.4106 0.0166712
64.6657 56.0359 0.0176935
61.8292 56.6895 0.0202588
60.67 63.9784 2
57.0259 66.7364 2
57.5589 63.6971 2
67.5107 50.177 2
65.7068 54.1764 2
64.543 51.3888 2
60.7753 60.9447 2
62.8276 55.0759 2
60.6632 58.1693 2
60.3356 55.7966 2
55.071 67.9333 3.99348
59.2207 62.3713 3.98535
55.8055 64.9138 3.98894
56.3283 62.0971 3.98386
65.336 49.4104 3.97325
63.7128 53.2974 3.97694
62.4474 50.6567 3.97246
59.3364 59.5656 3.98198
61.0853 54.3179 3.97845
59.2946 57.0229 3.97751
59.2499 55.1936 3.9798
48.1035 68.5815 3.99026
50.9487 69.9329 3.9939
54.0858 71.1327 4
56.25 69.976 2
58.3339 68.6801 0
57.0591 8.33399 3.99257
60.3285 7.74928 4
58.9224 9.65414 2
62.2255 9.30602 2
70.5764 48.8128 0.0148268
71.7835 44.3529 0.0155812
68.9153 46.0153 0.0235604
69.806 41.79 0.0245995
72.4059 39.8023 0.0167936
75 37.5 0
72.4891 37.5121 2
70.0424 39.6576 2
69.4329 43.9078 2
67.5999 41.4987 2
68.2689 48.1072 2
66.7138 45.4417 2
70.1305 37.5218 3.97455
67.836 39.513 3.971
67.2272 43.4714 3.97269
65.5591 41.2117 3.97116
66.0728 47.4199 3.97342
64.6569 44.8514 3.97213
72.4137 35.2242 0.0167347
71.8049 30.6766 0.0149416
69.8421 33.2685 0.0242528
68.9693 29.0384 0.0229366
64.0165 10.9835 0
63.8915 14.3246 0.0103579
63.5178 17.4405 0.0162063
67.6148 24.9123 0.0223683
66.1983 27.6342 0.0264176
64.7624 23.8279 0.0244819
62.9145 20.3136 0.021567
62.1008 22.9375 0.0248757
60.6848 11.0957 0.00846156
57.6134 11.4412 0.0135982
70.0592 35.3924 2
69.4701 31.1497 2
67.6582 33.5907 2
66.7766 29.6219 2
62.3431 12.6532 2
62.2022 15.7773 2
61.8209 18.6747 2
65.5283 25.6982 2
64.1504 28.2539 2
61.2265 21.3328 2
62.8629 24.6336 2
60.4339 23.7203 2
59.2476 12.7721 2
56.4065 13.1033 2
55.8752 10.2272 2
67.8723 35.5478 3.9714
67.2694 31.6217 3.97333
65.7008 33.9268 3.97104
64.668 30.1903 3.97253
63.5426 26.4125 3.97264
62.2616 28.7754 3.97252
60.7772 14.2172 3.98443
61.051 25.3334 3.97308
60.6176 17.1183 3.98209
60.2304 19.8062 3.97808
59.6699 22.2495 3.97432
58.986 24.3124 3.97537
54.0382 9.13129 3.98847
57.9121 14.3231 3.9828
54.7877 12.0034 3.98454
55.314 14.6351 3.98176
67.5108 50.1773 0.0229998
57.0256 66.7363 0.00680462
60.6696 63.9785 0.00818335
57.559 63.6962 0.0128111
65.7068 54.176 0.0194711
64.543 51.3884 0.0255028
60.7752 60.9438 0.0155083
60.663 58.1684 0.0200261
62.8274 55.0749 0.0204735
60.3353 55.7958 0.0214251
55.0713 67.9334 2
59.2207 62.3723 2
55.8054 64.9146 2
56.3283 62.0981 2
65.3359 49.4105 2
63.7129 53.2981 2
62.4474 50.657 2
59.3365 59.5667 2
61.0857 54.3187 2
59.2948 57.0237 2
59.2503 55.1943 2
53.0428 69.0011 3.99372
53.9677 66.016 3.98958
57.8826 60.8777 3.98288
54.6849 63.2137 3.98547
55.213 60.6249 3.98216
63.1986 48.6646 3.97154
61.749 52.5819 3.97514
60.2787 50.0255 3.97122
58.0218 58.2709 3.97928
59.3354 53.9573 3.97769
58.1326 55.8229 3.97553
50.1102 67.8595 3.99013
47.4642 66.586 3.988
46.0572 69.1611 3.99044
48.1035 68.582 2
48.8028 70.7241 3.99404
50.9489 69.933 2
51.8506 72.1454 4
54.0858 71.1327 2
56.25 69.9759 0
55.1033 7.13853 3.99283
58.3339 6.31992 4
57.0594 8.33396 2
60.3286 7.74926 2
58.9219 9.65405 0.00778366
62.2254 9.30607 0
68.269 48.1075 0.0234124
69.4329 43.9079 0.0239182
66.7139 45.4416 0.0268243
67.6 41.4987 0.0279941
70.0424 39.6576 0.0256198
72.4892 37.5121 0.0168628
70.1305 37.5218 2
67.836 39.5131 2
67.2271 43.4715 2
65.559 41.2118 2
66.0727 47.4199 2
64.6568 44.8515 2
67.9325 37.5225 3.97124
65.7894 39.3715 3.97031
65.18 43.0278 3.97154
63.7594 40.9319 3.97144
63.9703 46.72 3.97245
62.8123 44.2205 3.97199
70.0592 35.3922 0.0253169
69.47 31.1496 0.0232076
67.6582 33.5907 0.0278253
66.7766 29.622 0.0262571
62.3427 12.6528 0.00936179
62.2022 15.7778 0.0154966
61.8206 18.6758 0.0196317
65.5284 25.6985 0.0258346
64.1504 28.2541 0.0272969
62.8631 24.6339 0.0263489
61.2263 21.3335 0.0239888
60.4339 23.7207 0.0255098
59.2476 12.7726 0.015168
56.4066 13.1042 0.0167991
55.8752 10.2279 0.0121596
67.8723 35.5478 2
67.2695 31.6215 2
65.7009 33.9267 2
64.668 30.1901 2
60.7772 14.2167 2
60.6176 17.1175 2
60.2308 19.8052 2
63.5426 26.4121 2
62.2616 28.7753 2
59.6702 22.2489 2
61.0508 25.3331 2
58.9861 24.3121 2
57.9119 14.3224 2
55.3138 14.6343 2
54.0382 9.13073 2
54.7877 12.0025 2
65.8784 35.667 3.97049
65.1909 32.1528 3.97178
64.2875 34.2496 3.9713
62.6008 30.6336 3.9725
61.6554 27.0693 3.97192
60.855 29.1369 3.97263
59.3134 15.66 3.98271
59.3364 25.7902 3.97502
59.1293 18.3447 3.98072
58.748 20.8433 3.9756
58.2929 23.083 3.97321
57.9753 24.6568 3.97648
52.1128 8.14992 3.98885
53.0586 11.0099 3.98542
56.6786 15.7319 3.98189
53.8105 13.6699 3.98299
54.378 15.9864 3.98149
55.071 67.9333 0.00652467
65.336 49.4104 0.0267501
55.8055 64.9138 0.0110616
59.2207 62.3713 0.014655
56.3283 62.0971 0.0161361
63.7128 53.2974 0.0230638
62.4474 50.6567 0.0275372
59.3364 59.5656 0.0180154
59.2946 57.0229 0.0224911
61.0853 54.3179 0.0215474
59.2499 55.1936 0.0201987
53.0431 69.0012 2
53.9676 66.0166 2
57.8827 60.8786 2
54.6847 63.2147 2
55.213 60.6262 2
63.1985 48.6647 2
61.7493 52.5825 2
60.2788 50.0258 2
58.0221 58.272 2
59.3359 53.9579 2
58.133 55.8235 2
52.0713 67.0025 3.98993
52.9541 64.224 3.98677
56.6506 59.4979 3.98138
53.6822 61.6307 3.98347
[...]
POINT_DATA 3012
SCALARS rho_c_phif_kappa float 4
LOOKUP_TABLE default
1000 0 1.00071 0.247916
1000 0 1.00064 0.248129
1000 0 1.00071 0.247715
1000 0 1.00071 0.247949
1000 0 1.00071 0.247893
1000 0 1.00071 0.247912
1005.15 5.9185e-09 1.00077 0.247713
1000 0 1.00064 0.248118
1000 0 1.00064 0.247929
1000 0 1.00064 0.247972
1000 0 1.00071 0.247631
1005.15 5.84302e-09 1.00081 0.247533
1000 0 1.00071 0.248006
1000 0 1.00071 0.247936
1000 0 1.00071 0.247522
1000 0 1.00071 0.24786
1000 0 1.00071 0.24769
1000 0 1.00071 0.247732
1005.16 5.92543e-09 1.00077 0.247819
1000 0 1.00065 0.248169
1000 0 1.00071 0.248031
1000 0 1.00071 0.247895
1005.13 5.95496e-09 1.00077 0.247821
1005.15 5.93486e-09 1.00077 0.247768
1000 0 1.00071 0.247841
1005.17 5.90117e-09 1.00077 0.247629
1004.77 5.58065e-09 1.00081 0.247738
1000 0 1.00064 0.248098
1000 0 1.00068 0.247826
1000 0 1.00068 0.247821
1000 0 1.00064 0.248129
1005.15 5.84929e-09 1.00081 0.247546
1000 0 1.00071 0.247695
1000 0 1.00071 0.247623
1005.15 5.9395e-09 1.00077 0.247814
1000 0 1.00064 0.248066
1005.15 5.87431e-09 1.00077 0.247768
1005.17 5.82421e-09 1.00081 0.24764
1004.78 5.60949e-09 1.00081 0.247767
1000 0 1.00064 0.248225
1000 0 1.00065 0.248185
1000 0 1.00068 0.24803
1000 0 1.00065 0.248213
1000 0 1.00071 0.248033
1005.1 5.96035e-09 1.0008 0.247923
1000 0 1.00065 0.248032
1005.13 5.97192e-09 1.00077 0.247898
1000 0 1.00071 0.247784
1000 0 1.00071 0.247572
1000 0 1.00071 0.247479
1005.15 5.9185e-09 1.00077 0.24792
1000 0 1.00068 0.248209
1000 0 1.00071 0.247975
1000 0 1.00071 0.247647
1000 0 1.00071 0.247773
1005.11 5.96093e-09 1.00077 0.247856
1005.17 5.90769e-09 1.00077 0.247743
1005.15 5.94153e-09 1.00077 0.247857
1004.77 5.57855e-09 1.00081 0.247701
1000 0 1.00065 0.248208
1000 0 1.00071 0.248101
1005.09 5.9527e-09 1.00077 0.247943
1005.12 5.95837e-09 1.00077 0.247869
1005.14 5.94786e-09 1.00077 0.24779
1004.75 5.54598e-09 1.00081 0.247575
1004.77 5.56817e-09 1.00081 0.247695
1000 0 1.00071 0.247771
1005.19 5.88429e-09 1.00077 0.247582
1004.78 5.59308e-09 1.00081 0.247709
1004.71 5.49425e-09 1.0008 0.247184
1000 0 1.00064 0.248041
1000 0 1.00064 0.248107
1000 0 1.00064 0.248096
1005.15 5.84302e-09 1.00081 0.247561
1000 0 1.00065 0.248
1000 0 1.00064 0.24806
1005.15 5.94625e-09 1.00081 0.247721
1000 0 1.00068 0.247836
1005.14 5.88102e-09 1.00081 0.247603
1005.17 5.82933e-09 1.00079 0.247695
1004.78 5.60727e-09 1.00081 0.247777
1000 0 1.00064 0.248192
1005.26 5.8245e-09 1.00081 0.247688
1005.15 5.95955e-09 1.00081 0.247856
1005.15 5.90971e-09 1.00081 0.247795
1004.76 5.56401e-09 1.0008 0.247615
1005.2 5.8144e-09 1.00077 0.247777
1004.78 5.59892e-09 1.00081 0.247754
1004.78 5.61535e-09 1.00081 0.247768
1004.73 5.50976e-09 1.0008 0.247564
1000 0 1.00064 0.248257
1000 0 1.00064 0.248222
1000 0 1.00065 0.248078
1000 0 1.00065 0.24818
1000 0 1.00065 0.248207
1000 0 1.00068 0.248096
1005.08 5.96745e-09 1.00079 0.247891
1000 0 1.00068 0.247936
1005.11 5.97787e-09 1.00079 0.247869
1000 0 1.00065 0.248227
1005.09 5.95037e-09 1.0008 0.247862
1005.11 5.9679e-09 1.00077 0.247905
1004.75 5.53812e-09 1.0008 0.247367
1005.14 5.97046e-09 1.00077 0.247813
1004.75 5.54008e-09 1.0008 0.247557
1000 0 1.00071 0.248005
1000 0 1.00071 0.247936
1000 0 1.00071 0.247445
1000 0 1.00071 0.247655
1005.13 5.95496e-09 1.00077 0.247884
1005.15 5.93486e-09 1.00077 0.247943
1005.17 5.90117e-09 1.00077 0.247852
1004.77 5.58065e-09 1.00081 0.247664
1000 0 1.00065 0.248194
1000 0 1.00071 0.24806
1005.07 5.95987e-09 1.00078 0.247887
1005.09 5.96437e-09 1.00077 0.247892
1000 0 1.00068 0.247827
1005.18 5.88951e-09 1.00077 0.247702
1005.13 5.954e-09 1.00077 0.247854
1004.76 5.5441e-09 1.00081 0.247539
1004.78 5.59102e-09 1.00081 0.247681
1004.77 5.566e-09 1.00081 0.247679
1004.71 5.4948e-09 1.0008 0.247179
1005.08 5.94782e-09 1.0008 0.247928
1005.11 5.95768e-09 1.00077 0.247892
1004.75 5.54071e-09 1.00081 0.247426
1004.75 5.54028e-09 1.00081 0.247509
1004.76 5.55623e-09 1.00081 0.247618
1004.69 5.46748e-09 1.0008 0.247005
1000 0 1.00064 0.24812
1004.71 5.48524e-09 1.0008 0.247102
1005.2 5.86785e-09 1.00081 0.247525
1004.78 5.60227e-09 1.00081 0.247729
1004.72 5.50399e-09 1.0008 0.247261
1004.73 5.5098e-09 1.0008 0.246691
1005.25 5.8529e-09 1.00081 0.247712
1004.74 5.60405e-09 1.00081 0.248155
1000 0 1.00065 0.248013
1000 0 1.00064 0.248083
1005.15 5.9395e-09 1.00081 0.247727
1000 0 1.00064 0.248142
1005.17 5.82421e-09 1.00081 0.247564
1005.15 5.87431e-09 1.00081 0.247611
1004.78 5.60949e-09 1.00081 0.247788
1000 0 1.00064 0.248188
1005.26 5.82747e-09 1.00081 0.247684
1005.14 5.96566e-09 1.00079 0.247857
1005.15 5.91653e-09 1.00079 0.247796
1004.76 5.56194e-09 1.0008 0.247637
1005.19 5.81846e-09 1.00081 0.247603
1004.78 5.59665e-09 1.00081 0.247778
1004.78 5.61359e-09 1.00081 0.247776
1004.73 5.50998e-09 1.0008 0.247552
1005.23 5.81655e-09 1.00081 0.247659
1005.3 5.83367e-09 1.00081 0.247668
1004.75 5.6098e-09 1.00081 0.248079
1004.75 5.55171e-09 1.0008 0.247618
1004.77 5.58322e-09 1.00081 0.247659
1004.71 5.48263e-09 1.0008 0.247056
1004.77 5.61537e-09 1.00081 0.247921
1004.72 5.50455e-09 1.0008 0.247417
1004.73 5.51627e-09 1.00081 0.247546
1004.74 5.52682e-09 1.0008 0.247136
1000 0 1.00064 0.248282
1000 0 1.00064 0.248251
1000 0 1.00064 0.248218
1005.28 5.85523e-09 1.00081 0.247692
1000 0 1.00064 0.248167
1000 0 1.00065 0.248032
1000 0 1.00065 0.248127
1005.13 5.97192e-09 1.00081 0.247861
1005.1 5.96035e-09 1.0008 0.247905
1000 0 1.00065 0.24822
1000 0 1.00065 0.248222
1005.07 5.95809e-09 1.0008 0.247884
1005.09 5.9743e-09 1.00079 0.247883
1004.76 5.53607e-09 1.0008 0.247372
1005.12 5.97618e-09 1.00081 0.247799
1004.76 5.53816e-09 1.0008 0.24755
1005.08 5.94439e-09 1.0008 0.2479
1004.75 5.53624e-09 1.0008 0.247288
1004.75 5.53981e-09 1.0008 0.247472
1004.68 5.45725e-09 1.0008 0.24692
1004.75 5.54237e-09 1.0008 0.247604
1004.69 5.46542e-09 1.0008 0.247027
1000 0 1.00065 0.248201
1000 0 1.00071 0.248038
1005.09 5.9527e-09 1.0008 0.247951
1005.12 5.95837e-09 1.00077 0.247908
1000 0 1.00064 0.247999
1005.19 5.88429e-09 1.00077 0.247825
1005.14 5.94786e-09 1.00077 0.247913
1004.75 5.54598e-09 1.00081 0.247502
1004.77 5.56817e-09 1.00081 0.247669
1004.78 5.59308e-09 1.00081 0.24765
1004.71 5.49425e-09 1.0008 0.247174
1005.06 5.95565e-09 1.0008 0.247906
1005.08 5.96398e-09 1.00077 0.247922
1004.76 5.53871e-09 1.0008 0.247418
1004.76 5.53842e-09 1.00081 0.247515
1000 0 1.00064 0.248128
1005.2 5.87226e-09 1.00079 0.247648
1004.78 5.60017e-09 1.00081 0.247731
1004.76 5.55418e-09 1.00081 0.247595
1004.69 5.46782e-09 1.0008 0.246963
1004.72 5.50447e-09 1.0008 0.247246
1004.71 5.4857e-09 1.0008 0.247113
1004.73 5.50998e-09 1.0008 0.246697
1005.25 5.85648e-09 1.00081 0.24768
1004.74 5.60254e-09 1.00081 0.248117
1004.75 5.53777e-09 1.0008 0.247326
1004.75 5.54038e-09 1.00081 0.247497
1004.68 5.45843e-09 1.0008 0.246994
1004.69 5.46276e-09 1.0008 0.246938
1004.7 5.47643e-09 1.0008 0.247021
1004.7 5.48271e-09 1.0008 0.246558
1005.23 5.85631e-09 1.00081 0.247636
1004.72 5.50028e-09 1.0008 0.246599
1004.77 5.60597e-09 1.00081 0.247885
1004.73 5.51291e-09 1.0008 0.247444
1004.74 5.51915e-09 1.0008 0.246791
1004.72 5.50219e-09 1.0008 0.246184
1004.75 5.60521e-09 1.00081 0.24808
1004.73 5.60102e-09 1.00081 0.248221
1004.73 5.51533e-09 1.00081 0.247962
1005.15 5.95955e-09 1.00081 0.247788
1000 0 1.00064 0.248184
1005.26 5.8245e-09 1.00081 0.247672
1005.15 5.90971e-09 1.00081 0.247666
1004.76 5.56401e-09 1.0008 0.247657
1005.2 5.8144e-09 1.00081 0.247644
1004.78 5.61535e-09 1.00081 0.247788
1004.78 5.59892e-09 1.00081 0.2478
1004.73 5.50976e-09 1.0008 0.247541
1005.22 5.8199e-09 1.00081 0.247677
1005.29 5.83635e-09 1.00081 0.247646
1004.75 5.60825e-09 1.00081 0.248108
1004.76 5.54973e-09 1.0008 0.24762
1004.77 5.58107e-09 1.00081 0.247692
1004.71 5.4832e-09 1.0008 0.247055
1004.77 5.6137e-09 1.00081 0.247925
1004.72 5.50479e-09 1.0008 0.247432
1004.73 5.51665e-09 1.00081 0.247549
1004.74 5.52674e-09 1.0008 0.247095
1005.33 5.84425e-09 1.00081 0.247631
1004.76 5.61202e-09 1.00081 0.24805
1004.74 5.60695e-09 1.00081 0.248128
1004.73 5.51763e-09 1.00081 0.247991
1004.7 5.46191e-09 1.0008 0.24705
1004.72 5.49537e-09 1.0008 0.247175
1004.72 5.50523e-09 1.0008 0.246526
1004.73 5.51963e-09 1.00081 0.247736
1004.74 5.52417e-09 1.0008 0.246879
1004.75 5.52887e-09 1.00081 0.247024
1004.74 5.52686e-09 1.0008 0.246704
1004.7 5.59638e-09 1.00081 0.248041
1005.39 5.86589e-09 1.00081 0.247577
1000 0 1.00064 0.248307
1000 0 1.00064 0.248279
1000 0 1.00064 0.248248
1005.32 5.86446e-09 1.00081 0.247635
1000 0 1.00064 0.248207
1005.28 5.85825e-09 1.00081 0.2477
1000 0 1.00064 0.248169
1005.14 5.97046e-09 1.00081 0.247832
1005.11 5.9679e-09 1.00081 0.247888
1004.75 5.54008e-09 1.0008 0.247544
1004.75 5.53812e-09 1.0008 0.247377
1005.09 5.95037e-09 1.0008 0.247902
1000 0 1.00065 0.248228
1005.05 5.95274e-09 1.0008 0.247898
1004.75 5.53412e-09 1.0008 0.24729
1004.76 5.53778e-09 1.0008 0.247473
1004.68 5.45762e-09 1.0008 0.246916
1004.75 5.54054e-09 1.0008 0.247597
1004.69 5.46567e-09 1.0008 0.247026
1004.75 5.53795e-09 1.0008 0.24728
1004.68 5.44925e-09 1.0008 0.246849
1004.69 5.46268e-09 1.0008 0.246987
1004.7 5.47576e-09 1.0008 0.246578
1004.69 5.47049e-09 1.0008 0.24705
1004.7 5.47759e-09 1.0008 0.246582
1005.08 5.94782e-09 1.0008 0.247879
1005.11 5.95768e-09 1.00077 0.247944
1004.75 5.54071e-09 1.0008 0.247408
1004.75 5.54028e-09 1.00081 0.247519
1000 0 1.00064 0.248142
1005.2 5.86785e-09 1.00077 0.247707
1004.78 5.60227e-09 1.00081 0.247732
1004.76 5.55623e-09 1.00081 0.247573
1004.69 5.46748e-09 1.0008 0.246921
1004.71 5.48524e-09 1.0008 0.247121
1004.72 5.50399e-09 1.0008 0.247231
1004.73 5.5098e-09 1.0008 0.246702
1005.25 5.8529e-09 1.00081 0.24766
1004.74 5.60405e-09 1.00081 0.248085
1004.76 5.5356e-09 1.0008 0.247323
1004.76 5.5386e-09 1.00081 0.247491
1004.68 5.45875e-09 1.0008 0.246975
1004.68 5.46304e-09 1.0008 0.246962
1005.22 5.86031e-09 1.00081 0.247604
1004.77 5.60409e-09 1.00081 0.247873
1004.73 5.51308e-09 1.0008 0.247471
1004.7 5.47685e-09 1.0008 0.247027
1004.7 5.48286e-09 1.0008 0.246519
1004.74 5.51943e-09 1.0008 0.246757
1004.72 5.50045e-09 1.0008 0.246598
1004.72 5.50245e-09 1.0008 0.246169
1004.75 5.60366e-09 1.00081 0.248074
1004.73 5.5156e-09 1.00081 0.247978
1004.73 5.59952e-09 1.00081 0.248177
1004.68 5.45279e-09 1.0008 0.246918
1004.68 5.45832e-09 1.0008 0.247001
1004.7 5.47215e-09 1.0008 0.246681
1004.7 5.47307e-09 1.0008 0.246547
1004.71 5.48917e-09 1.0008 0.246485
1004.69 5.47094e-09 1.0008 0.246191
1004.76 5.60626e-09 1.00081 0.247992
1004.71 5.49267e-09 1.0008 0.246105
1004.73 5.51688e-09 1.00081 0.247765
1004.75 5.52633e-09 1.0008 0.246935
1004.73 5.51676e-09 1.0008 0.24619
1004.72 5.49606e-09 1.0008 0.245671
1004.72 5.59687e-09 1.00081 0.248249
1004.73 5.51497e-09 1.00081 0.247991
1004.74 5.51619e-09 1.00081 0.248046
1004.75 5.53769e-09 1.00081 0.247668
1004.75 5.55171e-09 1.0008 0.247624
1005.3 5.83367e-09 1.00081 0.24762
1005.23 5.81655e-09 1.00081 0.247703
1004.75 5.6098e-09 1.00081 0.248144
1004.77 5.58322e-09 1.00081 0.247721
1004.71 5.48263e-09 1.0008 0.247052
1004.77 5.61537e-09 1.00081 0.247925
1004.73 5.51627e-09 1.00081 0.247549
1004.72 5.50455e-09 1.0008 0.247449
1004.74 5.52682e-09 1.0008 0.247055
1005.33 5.84679e-09 1.00081 0.247611
1004.76 5.61043e-09 1.00081 0.24806
1004.74 5.60556e-09 1.00081 0.248159
1004.73 5.51768e-09 1.00081 0.247986
1004.7 5.46229e-09 1.0008 0.247046
1004.72 5.49587e-09 1.0008 0.247178
1004.72 5.50559e-09 1.0008 0.246522
1004.73 5.51984e-09 1.00081 0.247735
1004.74 5.52418e-09 1.0008 0.246905
1004.75 5.52921e-09 1.00081 0.247014
1004.74 5.5269e-09 1.0008 0.246743
1005.36 5.85403e-09 1.00081 0.247603
1004.73 5.60345e-09 1.00081 0.248161
1004.73 5.51796e-09 1.00081 0.247938
1004.74 5.51837e-09 1.00081 0.248099
1004.75 5.53789e-09 1.00081 0.247616
1004.71 5.55362e-09 1.0008 0.246577
1004.73 5.50642e-09 1.0008 0.246579
1004.71 5.5044e-09 1.0008 0.245965
1004.75 5.52984e-09 1.00081 0.247195
1004.73 5.51961e-09 1.0008 0.246285
1004.74 5.54549e-09 1.0008 0.246519
1004.71 5.59895e-09 1.00081 0.248089
1004.74 5.51678e-09 1.00081 0.248389
1004.69 5.59276e-09 1.0008 0.248006
1004.7 5.5953e-09 1.00081 0.248047
1005.42 5.87769e-09 1.00078 0.247752
1005.39 5.86825e-09 1.0008 0.247698
1000 0 1.00072 0.247942
1000 0 1.00064 0.248304
1000 0 1.00064 0.248276
1005.35 5.87761e-09 1.00081 0.247602
1000 0 1.00064 0.24824
1005.31 5.86703e-09 1.00081 0.247663
1000 0 1.00064 0.248209
1005.28 5.85523e-09 1.00081 0.2477
1000 0 1.00064 0.248171
1004.75 5.54237e-09 1.0008 0.24759
1004.75 5.53981e-09 1.0008 0.247473
1004.69 5.46542e-09 1.0008 0.247024
1004.68 5.45725e-09 1.0008 0.246912
1004.75 5.53624e-09 1.0008 0.247292
1005.08 5.94439e-09 1.0008 0.247886
1004.76 5.53564e-09 1.0008 0.247278
1004.68 5.44962e-09 1.0008 0.246847
1004.69 5.46293e-09 1.0008 0.246984
1004.7 5.47585e-09 1.0008 0.246558
1004.69 5.47084e-09 1.0008 0.247046
1004.7 5.47745e-09 1.0008 0.24658
1004.68 5.43922e-09 1.0008 0.246841
1004.69 5.48299e-09 1.0008 0.246559
1004.7 5.46944e-09 1.0008 0.24657
1004.69 5.47684e-09 1.0008 0.24631
1004.7 5.47674e-09 1.0008 0.246594
1004.69 5.4887e-09 1.0008 0.246144
1004.75 5.53777e-09 1.0008 0.247324
1004.75 5.54038e-09 1.00081 0.247482
1004.68 5.45843e-09 1.0008 0.246956
1004.69 5.46276e-09 1.0008 0.246987
1005.23 5.85631e-09 1.00081 0.247576
1004.77 5.60597e-09 1.00081 0.247866
1004.73 5.51291e-09 1.0008 0.247501
1004.7 5.47643e-09 1.0008 0.247035
1004.7 5.48271e-09 1.0008 0.24648
1004.72 5.50028e-09 1.0008 0.246597
1004.74 5.51915e-09 1.0008 0.246723
1004.72 5.50219e-09 1.0008 0.246152
1004.75 5.60521e-09 1.00081 0.248064
1004.73 5.51533e-09 1.00081 0.24799
1004.73 5.60102e-09 1.00081 0.248139
1004.68 5.45316e-09 1.0008 0.246904
1004.68 5.45847e-09 1.0008 0.24699
1004.7 5.47216e-09 1.0008 0.246661
1004.7 5.47288e-09 1.0008 0.246556
1004.76 5.60459e-09 1.00081 0.248001
1004.73 5.51677e-09 1.00081 0.247767
1004.75 5.52644e-09 1.0008 0.246959
1004.71 5.4892e-09 1.0008 0.246518
1004.69 5.47067e-09 1.0008 0.246143
1004.73 5.51716e-09 1.0008 0.246154
1004.71 5.49264e-09 1.0008 0.246121
1004.72 5.49598e-09 1.0008 0.245643
1004.73 5.51513e-09 1.00081 0.247995
1004.75 5.53783e-09 1.00081 0.247671
1004.72 5.5955e-09 1.00081 0.248222
1004.74 5.51612e-09 1.00081 0.248064
1004.69 5.48503e-09 1.0008 0.246628
1004.7 5.48475e-09 1.0008 0.246629
1004.69 5.49118e-09 1.0008 0.246458
1004.69 5.47663e-09 1.0008 0.246255
1004.7 5.49281e-09 1.0008 0.246032
1004.69 5.47313e-09 1.0008 0.245811
1004.73 5.51624e-09 1.00081 0.24794
1004.71 5.49652e-09 1.0008 0.245549
1004.75 5.52888e-09 1.00081 0.247321
1004.74 5.53875e-09 1.0008 0.246364
1004.72 5.50178e-09 1.0008 0.245605
1004.72 5.50241e-09 1.0008 0.245183
1004.71 5.59346e-09 1.00081 0.248215
1004.74 5.51537e-09 1.00081 0.248219
1004.75 5.53571e-09 1.00081 0.247756
1004.75 5.53848e-09 1.00081 0.247631
1004.75 5.53511e-09 1.00081 0.247539
1005.33 5.84425e-09 1.00081 0.24759
1004.7 5.46191e-09 1.0008 0.24704
1004.74 5.60695e-09 1.00081 0.248196
1004.76 5.61202e-09 1.00081 0.248066
1004.73 5.51763e-09 1.00081 0.247981
1004.72 5.49537e-09 1.0008 0.247182
1004.72 5.50523e-09 1.0008 0.246517
1004.73 5.51963e-09 1.00081 0.247731
1004.75 5.52887e-09 1.00081 0.247001
1004.74 5.52417e-09 1.0008 0.246931
1004.74 5.52686e-09 1.0008 0.246783
1005.36 5.85649e-09 1.00081 0.247587
1004.73 5.60215e-09 1.00081 0.24818
1004.73 5.51815e-09 1.00081 0.247935
1004.74 5.51833e-09 1.00081 0.248103
1004.75 5.53763e-09 1.00081 0.247608
1004.71 5.55405e-09 1.0008 0.246574
1004.73 5.50644e-09 1.0008 0.246571
1004.71 5.50435e-09 1.0008 0.245934
1004.75 5.52995e-09 1.00081 0.2472
1004.73 5.51941e-09 1.0008 0.246348
1004.75 5.54613e-09 1.0008 0.246529
1004.72 5.60159e-09 1.00081 0.248135
1004.74 5.51802e-09 1.00081 0.248233
1004.75 5.53336e-09 1.00081 0.247517
1004.75 5.5351e-09 1.00081 0.247686
1004.75 5.5412e-09 1.00081 0.247328
1004.69 5.26688e-09 1.0008 0.246183
1004.73 5.59363e-09 1.0008 0.245827
1004.71 5.38148e-09 1.0008 0.245092
1004.75 5.5594e-09 1.00081 0.246621
1004.73 5.54578e-09 1.0008 0.24595
1004.71 5.59791e-09 1.00081 0.248096
1004.74 5.51676e-09 1.00081 0.248348
1004.74 5.51684e-09 1.00081 0.24839
1004.76 5.54085e-09 1.00081 0.248131
1004.75 5.51674e-09 1.00081 0.248385
1004.68 5.58782e-09 1.0008 0.247988
1004.69 5.59181e-09 1.0008 0.24801
1005.45 5.89279e-09 1.00078 0.247736
1004.7 5.59638e-09 1.00081 0.248053
1005.42 5.87982e-09 1.00078 0.247789
1000 0 1.00072 0.247955
1005.39 5.86589e-09 1.00078 0.24778
1000 0 1.00068 0.248066
1000 0 1.00064 0.248303
1005.39 5.8914e-09 1.00081 0.247577
1005.35 5.8801e-09 1.00081 0.247623
1000 0 1.00064 0.24827
1000 0 1.00064 0.248243
1005.32 5.86446e-09 1.00081 0.247685
1000 0 1.00064 0.24821
1004.69 5.47049e-09 1.0008 0.247041
1004.69 5.46268e-09 1.0008 0.246982
1004.7 5.47759e-09 1.0008 0.246578
1004.7 5.47576e-09 1.0008 0.24654
1004.68 5.44925e-09 1.0008 0.246845
1004.75 5.53795e-09 1.0008 0.247274
1004.68 5.43978e-09 1.0008 0.24684
1004.69 5.48335e-09 1.0008 0.246559
1004.7 5.46952e-09 1.0008 0.246571
1004.69 5.47739e-09 1.0008 0.246283
1004.7 5.47704e-09 1.0008 0.24659
1004.69 5.48911e-09 1.0008 0.246123
1004.69 5.52576e-09 1.0008 0.24658
1004.69 5.49388e-09 1.0008 0.246393
1004.69 5.51491e-09 1.0008 0.246175
1004.69 5.38646e-09 1.0008 0.246133
1004.7 5.53411e-09 1.0008 0.246143
1004.69 5.3801e-09 1.0008 0.245803
1004.68 5.45279e-09 1.0008 0.246888
1004.68 5.45832e-09 1.0008 0.246979
1004.7 5.47215e-09 1.0008 0.246642
1004.7 5.47307e-09 1.0008 0.246566
1004.76 5.60626e-09 1.00081 0.248007
1004.73 5.51688e-09 1.00081 0.247768
1004.75 5.52633e-09 1.0008 0.246981
1004.71 5.48917e-09 1.0008 0.24655
1004.69 5.47094e-09 1.0008 0.246095
1004.71 5.49267e-09 1.0008 0.246136
1004.73 5.51676e-09 1.0008 0.246121
1004.72 5.49606e-09 1.0008 0.245609
1004.73 5.51497e-09 1.00081 0.248001
1004.75 5.53769e-09 1.00081 0.247677
1004.72 5.59687e-09 1.00081 0.248196
1004.74 5.51619e-09 1.00081 0.248082
1004.69 5.48551e-09 1.0008 0.246632
1004.7 5.48517e-09 1.0008 0.246631
1004.69 5.49219e-09 1.0008 0.246457
1004.69 5.47762e-09 1.0008 0.246255
1004.73 5.51617e-09 1.00081 0.247949
1004.75 5.52876e-09 1.00081 0.247356
1004.74 5.53928e-09 1.0008 0.246343
1004.7 5.49356e-09 1.0008 0.246075
1004.69 5.47462e-09 1.0008 0.245813
1004.72 5.50244e-09 1.0008 0.2456
1004.71 5.49761e-09 1.0008 0.245555
1004.72 5.50297e-09 1.0008 0.245206
1004.75 5.53547e-09 1.00081 0.247762
1004.75 5.53502e-09 1.00081 0.247539
1004.75 5.53836e-09 1.00081 0.247622
1004.71 5.59223e-09 1.00081 0.248202
1004.74 5.51533e-09 1.00081 0.248232
1004.69 5.41917e-09 1.0008 0.246375
1004.68 5.4326e-09 1.0008 0.246304
1004.68 5.44043e-09 1.0008 0.245871
1004.69 5.43242e-09 1.0008 0.245547
1004.75 5.53186e-09 1.00081 0.247678
1004.7 5.40747e-09 1.0008 0.244637
1004.75 5.55503e-09 1.0008 0.246827
1004.73 5.52344e-09 1.0008 0.245702
1004.72 5.46266e-09 1.0008 0.245028
1004.7 5.58958e-09 1.00081 0.248159
1004.74 5.51301e-09 1.0008 0.248328
1004.75 5.54071e-09 1.00081 0.247772
1004.75 5.53922e-09 1.00081 0.24761
1004.75 5.53947e-09 1.00081 0.247327
1004.75 5.53946e-09 1.00081 0.247491
1005.36 5.85403e-09 1.00081 0.24757
1004.73 5.60345e-09 1.00081 0.248197
1004.71 5.55362e-09 1.0008 0.246572
1004.74 5.51837e-09 1.00081 0.248105
1004.73 5.51796e-09 1.00081 0.247936
1004.75 5.53789e-09 1.00081 0.247601
1004.73 5.50642e-09 1.0008 0.246564
1004.71 5.5044e-09 1.0008 0.245907
1004.75 5.52984e-09 1.00081 0.247209
1004.74 5.54549e-09 1.0008 0.24654
1004.73 5.51961e-09 1.0008 0.246409
1004.72 5.60038e-09 1.00081 0.248145
1004.74 5.51797e-09 1.00081 0.248249
1004.75 5.53324e-09 1.00081 0.247525
1004.75 5.53499e-09 1.00081 0.247687
1004.75 5.54111e-09 1.00081 0.24731
1004.69 5.26738e-09 1.0008 0.246152
1004.73 5.59468e-09 1.0008 0.245846
1004.71 5.38366e-09 1.0008 0.245048
1004.75 5.55975e-09 1.00081 0.246601
1004.73 5.54643e-09 1.0008 0.245932
1004.74 5.51703e-09 1.00081 0.248307
1004.75 5.53503e-09 1.00081 0.247834
1004.75 5.55449e-09 1.00081 0.247049
1004.75 5.55144e-09 1.00081 0.247346
1004.75 5.55039e-09 1.00081 0.247226