# vtk DataFile Version 2.0
Wound Healing Simulation
ASCII
DATASET UNSTRUCTURED_GRID
POINTS 3012 float
69.9759 18.75 4
67.2507 60.3285 4
69.976 18.75 2
73.0099 25.446 4
71.1327 20.9142 4
68.6801 16.6661 4
67.8277 19.9233 3.98853
67.2507 60.3286 2
71.1327 54.0858 4
68.6801 58.3339 4
65.6939 62.2254 4
65.3141 59.0051 3.98985
74.6784 42.3946 4
73.7221 47.2057 4
69.9759 18.75 0
73.0099 25.446 2
68.6801 16.6661 2
71.1327 20.9142 2
67.8281 19.9239 2
74.6792 32.6053 4
73.7222 27.7943 4
72.1454 23.1494 4
70.6163 26.2221 3.98745
68.8881 21.9569 3.98821
67.2507 14.6715 4
66.639 17.9679 3.98921
65.8041 21.0192 3.98418
67.2507 60.3285 0
71.1327 54.0858 2
68.6801 58.3339 2
65.694 62.2255 2
65.3142 59.0051 2
72.1454 51.8506 4
69.9759 56.25 4
68.8391 53.1139 3.98811
64.0165 64.0165 4
66.6128 57.1372 3.98936
63.8873 60.7697 3.99091
63.5059 57.7807 3.98535
60.3285 67.2507 4
74.6792 42.3947 2
73.7222 47.2057 2
74.9194 39.9526 4
74.2788 44.8158 4
72.1696 42.0852 3.9862
73.0099 49.554 4
71.2514 46.5968 3.98747
73.0099 25.446 0
71.1327 20.9142 0
68.6801 16.6661 0
67.8277 19.9233 0.0114713
74.6792 32.6053 2
73.7222 27.7943 2
67.2508 14.6715 2
72.1455 23.1494 2
70.6165 26.2231 2
66.6394 17.968 2
68.8885 21.9579 2
65.8043 21.0187 2
74.9197 35.0474 4
74.2794 30.1841 4
72.1862 32.9434 3.98639
71.2801 28.4324 3.98722
69.818 24.06 3.98789
68.3528 26.9506 3.98094
66.7696 22.9293 3.9834
65.694 12.7746 4
65.3254 16.0989 3.9902
64.7202 19.1864 3.98507
63.8984 22.0252 3.9817
71.1327 54.0858 0
65.6939 62.2254 0
68.6801 58.3339 0
65.3141 59.0051 0.0101501
72.1455 51.8506 2
69.9759 56.25 2
68.8394 53.113 2
64.0165 64.0165 2
66.6131 57.137 2
63.8875 60.7697 2
63.5059 57.7811 2
62.2254 65.694 4
58.8943 65.4166 3.99257
69.7716 50.9883 3.98779
67.7862 55.1697 3.98879
66.6573 52.2127 3.98333
62.3373 62.4306 3.99179
64.6676 56.0391 3.98544
62.2068 59.414 3.98559
61.8322 56.6944 3.98324
58.3339 68.6801 4
60.3285 67.2508 2
73.7221 47.2057 0
74.6784 42.3946 0
74.9197 39.9526 2
74.2794 44.8159 2
72.1696 42.0855 2
73.0099 49.554 2
71.2514 46.5965 2
75 37.5 4
72.4065 39.802 3.98526
71.7843 44.352 3.98702
69.8087 41.7889 3.97948
70.5776 48.8122 3.98769
68.9185 46.0146 3.98041
74.6792 32.6053 0
73.7222 27.7943 0
67.2507 14.6715 0
72.1454 23.1494 0
70.6163 26.2221 0.0125474
68.8881 21.9569 0.0117942
66.639 17.9679 0.0107912
65.8041 21.0192 0.0158189
74.9197 35.0474 2
74.2794 30.1841 2
72.1862 32.9435 2
71.2801 28.4331 2
65.694 12.7745 2
65.3256 16.0988 2
69.8182 24.0611 2
68.3528 26.9506 2
64.7205 19.1858 2
66.7698 22.929 2
63.8987 22.0247 2
72.4143 35.224 3.98528
71.8055 30.6768 3.98707
69.8445 33.2685 3.97967
68.9716 29.038 3.98024
67.618 24.9098 3.98226
66.204 27.6312 3.97839
64.0165 10.9835 4
64.768 23.8223 3.98099
63.8914 14.3231 3.9911
63.5184 17.4367 3.98596
62.9175 20.3076 3.98243
62.1079 22.9294 3.98046
60.6846 11.0947 3.99212
57.613 11.4391 3.98728
72.1454 51.8506 0
69.9759 56.25 0
68.8391 53.1139 0.0118925
64.0165 64.0165 0
63.8873 60.7697 0.00908742
66.6128 57.1372 0.0106372
63.5059 57.7807 0.0146539
62.2255 65.694 2
58.8945 65.4166 2
69.7718 50.9873 2
67.7865 55.1691 2
66.6573 52.2131 2
62.3374 62.4305 2
64.6678 56.0396 2
62.2068 59.4143 2
61.8323 56.6948 2
60.6693 63.9797 3.99221
57.0248 66.7371 3.99299
57.5583 63.6979 3.98745
67.5149 50.1785 3.98216
65.7097 54.1789 3.9846
64.5503 51.3925 3.98049
60.7755 60.9467 3.98627
62.8313 55.0798 3.98352
60.6651 58.1729 3.98324
60.3399 55.8022 3.98237
56.25 69.9759 4
58.3339 68.6801 2
60.3285 67.2507 0
58.9215 9.65306 3.99254
62.2254 9.30607 4
73.0099 49.554 0
74.2788 44.8158 0
71.2514 46.5968 0.0125298
72.1696 42.0852 0.0138012
74.9194 39.9526 0
75 37.5 2
72.4065 39.8024 2
71.7843 44.3521 2
69.8087 41.7889 2
70.5777 48.8115 2
68.9183 46.0145 2
72.4897 37.5119 3.98479
70.0447 39.6567 3.97837
69.4359 43.9069 3.98009
67.605 41.4979 3.9767
68.2728 48.1078 3.98119
66.7197 45.4416 3.97794
74.9197 35.0474 0
74.2794 30.1841 0
72.1862 32.9434 0.0136077
71.2801 28.4324 0.0127766
65.694 12.7746 0
65.3254 16.0989 0.00980059
69.818 24.06 0.0121113
68.3528 26.9506 0.0190594
66.7696 22.9293 0.0166008
64.7202 19.1864 0.0149294
63.8984 22.0252 0.0183004
72.4143 35.2242 2
71.8056 30.6771 2
69.8445 33.2686 2
68.9716 29.0381 2
64.0165 10.9835 2
63.8915 14.3231 2
63.5186 17.4361 2
67.618 24.9097 2
66.204 27.6309 2
62.9179 20.3071 2
64.7682 23.8219 2
62.1082 22.9291 2
60.6848 11.0946 2
57.613 11.4385 2
70.0614 35.3919 3.97875
69.4722 31.1495 3.98012
67.6629 33.5896 3.97686
66.7809 29.6204 3.97756
65.5348 25.6939 3.97971
64.1588 28.2491 3.97759
62.3426 12.6517 3.99169
62.8721 24.6259 3.97999
62.2023 15.7746 3.98619
61.8222 18.6704 3.98354
61.2315 21.3255 3.9807
60.4439 23.7107 3.9802
59.2475 12.77 3.98647
55.8747 10.2258 3.98851
56.4067 13.1013 3.98432
69.7716 50.9883 0.012214
62.2254 65.694 0
58.8943 65.4166 0.00742738
67.7862 55.1697 0.0112111
66.6573 52.2127 0.0166745
62.3373 62.4306 0.00820602
62.2068 59.414 0.0144116
64.6676 56.0391 0.0145619
61.8322 56.6944 0.0167561
60.6695 63.9797 2
57.025 66.7372 2
57.5583 63.6983 2
67.5149 50.1787 2
65.7098 54.1794 2
64.5503 51.3931 2
60.7756 60.9473 2
62.8315 55.0804 2
60.6651 58.1733 2
60.34 55.8025 2
55.0703 67.9339 3.99331
59.2207 62.3738 3.98667
55.8044 64.9149 3.98847
56.3284 62.0987 3.98455
65.3438 49.4132 3.97935
63.7186 53.3022 3.98211
62.4587 50.6626 3.97907
59.3377 59.5692 3.98418
61.0916 54.3244 3.98268
59.2981 57.029 3.98161
59.2558 55.2012 3.98263
48.1026 68.5819 3.99018
50.9481 69.9332 3.99381
54.0858 71.1327 4
56.25 69.976 2
58.3339 68.6801 0
57.0586 8.333 3.99305
60.3285 7.74928 4
58.9217 9.65295 2
62.2255 9.30602 2
70.5776 48.8122 0.0123122
71.7843 44.352 0.0129802
68.9185 46.0146 0.0195888
69.8087 41.7889 0.0205244
72.4065 39.802 0.0147376
75 37.5 0
72.4897 37.5122 2
70.0448 39.6567 2
69.4358 43.9068 2
67.6051 41.498 2
68.2727 48.1078 2
66.7195 45.4419 2
70.1324 37.5212 3.97798
67.8405 39.5121 3.97562
67.2326 43.4709 3.97745
65.5665 41.2114 3.97588
66.0798 47.4211 3.97863
64.6654 44.8523 3.97708
72.4143 35.224 0.014715
71.8055 30.6768 0.0129335
69.8445 33.2685 0.0203339
68.9716 29.038 0.0197633
64.0165 10.9835 0
63.8914 14.3231 0.00890187
63.5184 17.4367 0.014041
67.618 24.9098 0.0177415
66.204 27.6312 0.0216055
64.768 23.8223 0.0190089
62.9175 20.3076 0.0175741
62.1079 22.9294 0.019536
60.6846 11.0947 0.0078763
57.613 11.4391 0.0127188
70.0616 35.392 2
69.4722 31.1497 2
67.663 33.5894 2
66.7809 29.6201 2
62.3427 12.6516 2
62.2024 15.7741 2
61.8226 18.6698 2
65.5348 25.6935 2
64.1588 28.2488 2
61.2319 21.3251 2
62.8723 24.6256 2
60.4442 23.7105 2
59.2474 12.7695 2
56.4066 13.1007 2
55.8747 10.2252 2
67.8767 35.5467 3.97611
67.2737 31.6205 3.97751
65.7078 33.9245 3.9758
64.6745 30.1871 3.97643
63.5522 26.4055 3.97869
62.2726 28.7685 3.97804
60.7772 14.2142 3.98617
61.0635 25.3233 3.97982
60.6183 17.1139 3.98432
60.2337 19.799 3.98202
59.6777 22.2398 3.97948
58.9989 24.3015 3.98053
54.0376 9.1294 3.98925
57.9125 14.3195 3.98432
54.7876 12.0008 3.98515
55.3146 14.6318 3.98314
67.5149 50.1785 0.0178369
57.0248 66.7371 0.00700832
60.6693 63.9797 0.00779094
57.5583 63.6979 0.0125489
65.7097 54.1789 0.0154009
64.5503 51.3925 0.0195101
60.7755 60.9467 0.0137258
60.6651 58.1729 0.0167633
62.8313 55.0798 0.0164841
60.3399 55.8022 0.0176264
55.0705 67.934 2
59.2206 62.3744 2
55.8043 64.9153 2
56.3284 62.0992 2
65.3437 49.4137 2
63.7187 53.3027 2
62.4587 50.6631 2
59.3377 59.5699 2
61.0918 54.3248 2
59.2982 57.0293 2
59.2559 55.2015 2
53.0421 69.0016 3.99359
53.9664 66.0168 3.98915
57.8834 60.8806 3.98438
54.6842 63.2143 3.98532
55.2139 60.6265 3.98318
63.2103 48.6691 3.97811
61.7581 52.5884 3.98084
60.2944 50.0329 3.97832
58.0242 58.2757 3.98258
59.3436 53.9649 3.98189
58.1378 55.8313 3.98003
50.109 67.8599 3.98994
47.4629 66.5862 3.9879
46.0564 69.1614 3.99043
48.1026 68.5823 2
48.8024 70.7244 3.99402
50.9483 69.9334 2
51.8506 72.1454 4
54.0858 71.1327 2
56.25 69.9759 0
55.1028 7.13762 3.99336
58.3339 6.31992 4
57.0588 8.33283 2
60.3286 7.74926 2
58.9215 9.65306 0.00746011
62.2254 9.30607 0
68.2728 48.1078 0.0188091
69.4359 43.9069 0.0199111
66.7197 45.4416 0.0220624
67.605 41.4979 0.0232962
70.0447 39.6567 0.0216269
72.4897 37.5119 0.0152141
70.1324 37.5212 2
67.8406 39.5122 2
67.2325 43.4711 2
65.5665 41.2116 2
66.0796 47.4215 2
64.6653 44.8527 2
67.9362 37.5214 3.97499
65.7962 39.3707 3.97487
65.188 43.028 3.97654
63.7689 40.9324 3.97578
63.9803 46.7224 3.97758
62.8233 44.2222 3.9777
70.0614 35.3919 0.0212461
69.4722 31.1495 0.0198846
67.6629 33.5896 0.0231398
66.7809 29.6204 0.0224381
62.3426 12.6517 0.00831264
62.2023 15.7746 0.0138139
61.8222 18.6704 0.016457
65.5348 25.6939 0.0202852
64.1588 28.2491 0.022414
62.8721 24.6259 0.0200088
61.2315 21.3255 0.0193019
60.4439 23.7107 0.0197994
59.2475 12.77 0.0135315
56.4067 13.1013 0.0156821
55.8747 10.2258 0.0114887
67.8769 35.5466 2
67.2737 31.6203 2
65.708 33.9243 2
64.6744 30.1868 2
60.7772 14.2136 2
60.6185 17.1133 2
60.2342 19.7985 2
63.5523 26.4052 2
62.2725 28.7682 2
59.6781 22.2395 2
61.0637 25.3231 2
58.9991 24.3014 2
57.9124 14.319 2
55.3146 14.6312 2
54.0376 9.12884 2
54.7876 12 2
65.8852 35.6652 3.97514
65.1974 32.1502 3.9763
64.2963 34.2465 3.97557
62.6093 30.6281 3.97634
61.6684 27.0605 3.97835
60.8679 29.1289 3.98001
59.3139 15.6561 3.98445
59.3524 25.7796 3.98113
59.1308 18.3389 3.98339
58.7534 20.8344 3.98042
58.3034 23.0719 3.97835
57.9899 24.645 3.98121
52.1123 8.14818 3.9897
53.0583 11.0072 3.98615
56.6794 15.7277 3.98355
53.8109 13.6671 3.98336
54.3789 15.9827 3.98298
55.0703 67.9339 0.00668794
65.3438 49.4132 0.0206537
55.8044 64.9149 0.0115306
59.2207 62.3738 0.0133273
56.3284 62.0987 0.0154499
63.7186 53.3022 0.017894
62.4587 50.6626 0.0209335
59.3377 59.5692 0.0158214
59.2981 57.029 0.0183926
61.0916 54.3244 0.0173212
59.2558 55.2012 0.0173717
53.0424 69.0017 2
53.9664 66.0172 2
57.8834 60.8811 2
54.6842 63.2148 2
55.2138 60.6271 2
63.2103 48.6696 2
61.7582 52.5888 2
60.2944 50.0333 2
58.0243 58.2762 2
59.3438 53.9652 2
58.138 55.8316 2
52.07 67.0031 3.98963
52.9531 64.2243 3.98619
[...]
POINT_DATA 3012
SCALARS rho_c_phif_kappa float 4
LOOKUP_TABLE default
1000 0 1.00042 0.241361
1000 0 1.00039 0.241545
1000 0 1.00042 0.241245
1000 0 1.00042 0.24143
1000 0 1.00042 0.241383
1000 0 1.00042 0.241329
1003.41 3.95115e-09 1.00044 0.241338
1000 0 1.00039 0.241533
1000 0 1.0004 0.241438
1000 0 1.00039 0.241462
1000 0 1.00042 0.241205
1003.41 3.91582e-09 1.00046 0.241202
1000 0 1.00042 0.241473
1000 0 1.00042 0.241284
1000 0 1.00042 0.24113
1000 0 1.00042 0.241327
1000 0 1.00042 0.241223
1000 0 1.00042 0.241267
1003.41 3.95439e-09 1.00044 0.24139
1000 0 1.0004 0.241602
1000 0 1.00042 0.241471
1000 0 1.00042 0.241402
1003.4 3.97026e-09 1.00044 0.241451
1003.4 3.95938e-09 1.00044 0.241388
1000 0 1.00042 0.241306
1003.42 3.94267e-09 1.00044 0.241295
1002.93 3.44203e-09 1.00046 0.241504
1000 0 1.00039 0.241523
1000 0 1.00041 0.241337
1000 0 1.00041 0.241325
1000 0 1.00039 0.241553
1003.41 3.91824e-09 1.00046 0.241206
1000 0 1.00042 0.241234
1000 0 1.00042 0.241206
1003.4 3.96057e-09 1.00045 0.241419
1000 0 1.00039 0.241546
1003.41 3.93063e-09 1.00045 0.241347
1003.42 3.90589e-09 1.00046 0.241276
1002.94 3.46072e-09 1.00046 0.241495
1000 0 1.00039 0.241627
1000 0 1.0004 0.241623
1000 0 1.00041 0.241424
1000 0 1.0004 0.241675
1000 0 1.00042 0.241359
1003.38 3.97669e-09 1.00046 0.241502
1000 0 1.0004 0.241454
1003.4 3.97958e-09 1.00045 0.241527
1000 0 1.00042 0.241229
1000 0 1.00042 0.241155
1000 0 1.00042 0.241114
1003.41 3.95115e-09 1.00044 0.241441
1000 0 1.00041 0.241584
1000 0 1.00042 0.241382
1000 0 1.00042 0.241213
1000 0 1.00042 0.241291
1003.39 3.97362e-09 1.00044 0.241493
1003.41 3.94548e-09 1.00044 0.241341
1003.4 3.96282e-09 1.00044 0.241443
1002.93 3.44111e-09 1.00046 0.241503
1000 0 1.0004 0.241636
1000 0 1.00042 0.24152
1003.38 3.97264e-09 1.00045 0.241507
1003.39 3.97236e-09 1.00044 0.241471
1003.4 3.9663e-09 1.00044 0.241424
1002.93 3.42386e-09 1.00046 0.241551
1002.93 3.43553e-09 1.00046 0.241538
1000 0 1.00042 0.241302
1003.42 3.93416e-09 1.00044 0.241287
1002.93 3.44876e-09 1.00046 0.241464
1002.96 3.45873e-09 1.00046 0.24134
1000 0 1.0004 0.241509
1000 0 1.00039 0.241547
1000 0 1.00039 0.241507
1003.41 3.91582e-09 1.00046 0.241211
1000 0 1.0004 0.241503
1000 0 1.0004 0.241524
1003.4 3.9639e-09 1.00046 0.241309
1000 0 1.00041 0.241382
1003.4 3.93338e-09 1.00046 0.241216
1003.42 3.90796e-09 1.00045 0.241314
1002.94 3.45989e-09 1.00046 0.241495
1000 0 1.00039 0.241603
1003.46 3.90257e-09 1.00046 0.24127
1003.4 3.97018e-09 1.00046 0.241446
1003.41 3.94716e-09 1.00046 0.241339
1002.93 3.43339e-09 1.00046 0.241517
1003.43 3.89972e-09 1.00045 0.241367
1002.94 3.45389e-09 1.00046 0.241516
1002.93 3.46465e-09 1.00046 0.241475
1002.96 3.46169e-09 1.00046 0.241439
1000 0 1.00039 0.241652
1000 0 1.00039 0.241626
1000 0 1.0004 0.24152
1000 0 1.0004 0.241602
1000 0 1.0004 0.241659
1000 0 1.00041 0.241478
1003.38 3.97985e-09 1.00045 0.241495
1000 0 1.00041 0.241377
1003.39 3.98257e-09 1.00045 0.241472
1000 0 1.0004 0.241673
1003.38 3.97269e-09 1.00046 0.24146
1003.39 3.97931e-09 1.00045 0.241527
1002.93 3.4188e-09 1.00045 0.241397
1003.4 3.97739e-09 1.00045 0.241459
1002.93 3.41942e-09 1.00045 0.241531
1000 0 1.00042 0.241468
1000 0 1.00042 0.241295
1000 0 1.00042 0.241119
1000 0 1.00042 0.241185
1003.4 3.97026e-09 1.00044 0.241533
1003.4 3.95938e-09 1.00044 0.241497
1003.42 3.94267e-09 1.00044 0.241388
1002.93 3.44203e-09 1.00046 0.241502
1000 0 1.0004 0.241645
1000 0 1.00042 0.241444
1003.38 3.97593e-09 1.00045 0.241493
1003.39 3.97552e-09 1.00044 0.241505
1000 0 1.00041 0.24136
1003.42 3.93641e-09 1.00045 0.241334
1003.4 3.96976e-09 1.00044 0.241477
1002.93 3.4229e-09 1.00046 0.241533
1002.93 3.44795e-09 1.00046 0.241465
1002.93 3.43451e-09 1.00046 0.241539
1002.96 3.45912e-09 1.00046 0.24134
1003.38 3.97121e-09 1.00046 0.241502
1003.39 3.97323e-09 1.00044 0.241481
1002.93 3.42038e-09 1.00046 0.241437
1002.93 3.41992e-09 1.00046 0.241512
1002.93 3.42937e-09 1.00046 0.241553
1002.95 3.45034e-09 1.00045 0.241306
1000 0 1.00039 0.241565
1002.96 3.45626e-09 1.00045 0.24134
1003.43 3.92578e-09 1.00046 0.241211
1002.93 3.45382e-09 1.00046 0.241462
1002.96 3.46206e-09 1.00046 0.241333
1002.96 3.46479e-09 1.00045 0.241102
1003.46 3.91773e-09 1.00046 0.241274
1002.91 3.45458e-09 1.00046 0.241605
1000 0 1.0004 0.241502
1000 0 1.0004 0.241507
1003.4 3.96057e-09 1.00046 0.241312
1000 0 1.00039 0.241574
1003.42 3.90589e-09 1.00046 0.24122
1003.41 3.93063e-09 1.00046 0.241221
1002.94 3.46072e-09 1.00046 0.241496
1000 0 1.00039 0.241601
1003.46 3.90403e-09 1.00046 0.241265
1003.4 3.97349e-09 1.00045 0.241452
1003.4 3.95021e-09 1.00045 0.241355
1002.93 3.43248e-09 1.00046 0.241535
1003.43 3.90149e-09 1.00046 0.241239
1002.94 3.453e-09 1.00046 0.241522
1002.94 3.46389e-09 1.00046 0.241478
1002.96 3.46199e-09 1.00046 0.241439
1003.44 3.89956e-09 1.00046 0.241258
1003.48 3.90649e-09 1.00046 0.241269
1002.91 3.45976e-09 1.00046 0.241575
1002.93 3.42744e-09 1.00045 0.241553
1002.94 3.44273e-09 1.00046 0.241503
1002.96 3.45989e-09 1.00045 0.241321
1002.93 3.4648e-09 1.00046 0.241521
1002.96 3.46132e-09 1.00046 0.241425
1002.97 3.46317e-09 1.00046 0.241406
1002.97 3.47501e-09 1.00046 0.241222
1000 0 1.00039 0.241675
1000 0 1.00039 0.241651
1000 0 1.00039 0.241626
1003.47 3.91824e-09 1.00046 0.241269
1000 0 1.00039 0.241595
1000 0 1.0004 0.241503
1000 0 1.0004 0.241554
1003.4 3.97958e-09 1.00046 0.241433
1003.38 3.97669e-09 1.00046 0.241469
1000 0 1.0004 0.241652
1000 0 1.0004 0.241681
1003.37 3.97605e-09 1.00046 0.241471
1003.39 3.98233e-09 1.00045 0.241477
1002.93 3.41781e-09 1.00045 0.2414
1003.4 3.98047e-09 1.00046 0.241396
1002.93 3.41849e-09 1.00045 0.241528
1003.38 3.96974e-09 1.00046 0.241491
1002.93 3.41825e-09 1.00045 0.241347
1002.93 3.4189e-09 1.00045 0.241468
1002.94 3.4477e-09 1.00045 0.241249
1002.93 3.42076e-09 1.00045 0.241563
1002.95 3.45102e-09 1.00045 0.241325
1000 0 1.0004 0.241664
1000 0 1.00042 0.241368
1003.38 3.97264e-09 1.00046 0.241528
1003.39 3.97236e-09 1.00044 0.241538
1000 0 1.00039 0.241508
1003.42 3.93416e-09 1.00045 0.241383
1003.4 3.9663e-09 1.00044 0.241527
1002.93 3.42386e-09 1.00046 0.241515
1002.93 3.43553e-09 1.00046 0.241542
1002.93 3.44876e-09 1.00046 0.241465
1002.96 3.45873e-09 1.00046 0.241339
1003.37 3.97485e-09 1.00046 0.241488
1003.38 3.9763e-09 1.00044 0.241516
1002.93 3.41935e-09 1.00046 0.241434
1002.93 3.41901e-09 1.00046 0.241511
1000 0 1.00039 0.241567
1003.43 3.92772e-09 1.00045 0.241298
1002.93 3.45312e-09 1.00046 0.241467
1002.93 3.42835e-09 1.00046 0.241544
1002.95 3.45075e-09 1.00045 0.241288
1002.96 3.46249e-09 1.00046 0.241325
1002.96 3.4566e-09 1.00045 0.241347
1002.96 3.46494e-09 1.00045 0.241107
1003.45 3.91938e-09 1.00046 0.241272
1002.91 3.45381e-09 1.00046 0.241589
1002.93 3.42046e-09 1.00045 0.241377
1002.93 3.41952e-09 1.00046 0.241483
1002.94 3.44499e-09 1.00045 0.241275
1002.95 3.44672e-09 1.00045 0.24127
1002.95 3.45409e-09 1.00045 0.241318
1002.95 3.45265e-09 1.00045 0.241098
1003.44 3.91985e-09 1.00046 0.241251
1002.96 3.4614e-09 1.00045 0.241104
1002.93 3.45638e-09 1.00046 0.24151
1002.97 3.46432e-09 1.00046 0.241379
1002.97 3.4696e-09 1.00046 0.241094
1002.96 3.45814e-09 1.00045 0.240839
1002.92 3.45584e-09 1.00046 0.24159
1002.9 3.45245e-09 1.00046 0.241618
1002.97 3.46415e-09 1.00046 0.241557
1003.4 3.97018e-09 1.00046 0.241373
1000 0 1.00039 0.2416
1003.46 3.90257e-09 1.00046 0.241259
1003.41 3.94716e-09 1.00046 0.241253
1002.93 3.43339e-09 1.00046 0.241552
1003.43 3.89972e-09 1.00046 0.241245
1002.93 3.46465e-09 1.00046 0.24148
1002.94 3.45389e-09 1.00046 0.241527
1002.96 3.46169e-09 1.00046 0.241438
1003.44 3.90113e-09 1.00046 0.241261
1003.48 3.90785e-09 1.00046 0.241259
1002.91 3.45886e-09 1.00046 0.241587
1002.93 3.42652e-09 1.00045 0.241563
1002.94 3.44183e-09 1.00046 0.241518
1002.96 3.46019e-09 1.00045 0.24132
1002.93 3.46397e-09 1.00046 0.241525
1002.96 3.46151e-09 1.00046 0.241434
1002.97 3.4636e-09 1.00046 0.241407
1002.97 3.47514e-09 1.00046 0.241206
1003.49 3.91146e-09 1.00046 0.241261
1002.92 3.46224e-09 1.00046 0.241567
1002.91 3.45759e-09 1.00046 0.241582
1002.97 3.46406e-09 1.00046 0.241587
1002.95 3.45373e-09 1.00045 0.241343
1002.96 3.46726e-09 1.00046 0.241348
1002.96 3.45282e-09 1.00045 0.241042
1002.97 3.46379e-09 1.00046 0.241482
1002.97 3.4752e-09 1.00046 0.241156
1002.97 3.48275e-09 1.00046 0.241151
1002.97 3.4717e-09 1.00046 0.241
1002.88 3.44877e-09 1.00046 0.241566
1003.52 3.92226e-09 1.00046 0.241243
1000 0 1.00039 0.241697
1000 0 1.00039 0.241675
1000 0 1.00039 0.241651
1003.49 3.9221e-09 1.00046 0.241251
1000 0 1.00039 0.241625
1003.47 3.91975e-09 1.00046 0.241277
1000 0 1.00039 0.241595
1003.4 3.97739e-09 1.00046 0.241413
1003.39 3.97931e-09 1.00046 0.24145
1002.93 3.41942e-09 1.00045 0.241527
1002.93 3.4188e-09 1.00045 0.241402
1003.38 3.97269e-09 1.00046 0.241482
1000 0 1.0004 0.241679
1003.37 3.97343e-09 1.00046 0.241487
1002.93 3.41718e-09 1.00045 0.241349
1002.93 3.41786e-09 1.00045 0.241468
1002.94 3.44815e-09 1.00045 0.241246
1002.93 3.41989e-09 1.00045 0.241564
1002.95 3.45145e-09 1.00045 0.241324
1002.93 3.41993e-09 1.00045 0.241343
1002.94 3.44755e-09 1.00045 0.24121
1002.95 3.45009e-09 1.00045 0.241291
1002.95 3.44509e-09 1.00045 0.241113
1002.95 3.4545e-09 1.00045 0.241345
1002.95 3.44914e-09 1.00045 0.241117
1003.38 3.97121e-09 1.00046 0.241472
1003.39 3.97323e-09 1.00044 0.241552
1002.93 3.42038e-09 1.00045 0.24143
1002.93 3.41992e-09 1.00046 0.241511
1000 0 1.00039 0.241571
1003.43 3.92578e-09 1.00045 0.241339
1002.93 3.45382e-09 1.00046 0.241472
1002.93 3.42937e-09 1.00046 0.241536
1002.95 3.45034e-09 1.00045 0.24127
1002.96 3.45626e-09 1.00045 0.241353
1002.96 3.46206e-09 1.00046 0.241316
1002.96 3.46479e-09 1.00045 0.241112
1003.46 3.91773e-09 1.00046 0.241269
1002.91 3.45458e-09 1.00046 0.241574
1002.93 3.4193e-09 1.00045 0.241377
1002.93 3.41861e-09 1.00046 0.24148
1002.94 3.44541e-09 1.00045 0.241269
1002.95 3.44719e-09 1.00045 0.241277
1003.44 3.92163e-09 1.00046 0.241244
1002.93 3.45563e-09 1.00046 0.241509
1002.97 3.46475e-09 1.00046 0.241384
1002.95 3.45452e-09 1.00045 0.241324
1002.95 3.45288e-09 1.00045 0.241083
1002.97 3.46989e-09 1.00046 0.241082
1002.96 3.46155e-09 1.00045 0.241106
1002.96 3.45841e-09 1.00045 0.24083
1002.92 3.45503e-09 1.00046 0.241582
1002.97 3.46458e-09 1.00046 0.241567
1002.9 3.45167e-09 1.00046 0.241597
1002.94 3.44256e-09 1.00045 0.24124
1002.94 3.44511e-09 1.00045 0.241279
1002.95 3.4477e-09 1.00045 0.241148
1002.95 3.45006e-09 1.00045 0.241096
1002.96 3.45643e-09 1.00045 0.241069
1002.95 3.45074e-09 1.00045 0.240906
1002.92 3.45688e-09 1.00046 0.241555
1002.95 3.45407e-09 1.00045 0.240836
1002.97 3.4646e-09 1.00046 0.241486
1002.97 3.47783e-09 1.00046 0.241123
1002.96 3.4612e-09 1.00045 0.240775
1002.96 3.45451e-09 1.00045 0.240568
1002.89 3.4495e-09 1.00046 0.241629
1002.97 3.46409e-09 1.00046 0.241573
1002.97 3.46495e-09 1.00046 0.241559
1002.97 3.47645e-09 1.00046 0.241381
1002.93 3.42744e-09 1.00045 0.241572
1003.48 3.90649e-09 1.00046 0.241249
1003.44 3.89956e-09 1.00046 0.241262
1002.91 3.45976e-09 1.00046 0.241599
1002.94 3.44273e-09 1.00046 0.241534
1002.96 3.45989e-09 1.00045 0.241319
1002.93 3.4648e-09 1.00046 0.241528
1002.97 3.46317e-09 1.00046 0.241408
1002.96 3.46132e-09 1.00046 0.241443
1002.97 3.47501e-09 1.00046 0.241191
1003.49 3.9127e-09 1.00046 0.241251
1002.92 3.46133e-09 1.00046 0.241572
1002.91 3.45674e-09 1.00046 0.241596
1002.97 3.46431e-09 1.00046 0.241583
1002.95 3.45414e-09 1.00045 0.241337
1002.96 3.46766e-09 1.00046 0.241351
1002.96 3.45325e-09 1.00045 0.241041
1002.97 3.46412e-09 1.00046 0.24148
1002.97 3.47537e-09 1.00046 0.241167
1002.97 3.48315e-09 1.00046 0.241147
1002.97 3.47197e-09 1.00046 0.241025
1003.51 3.91632e-09 1.00046 0.241253
1002.9 3.45492e-09 1.00046 0.241592
1002.97 3.46337e-09 1.00046 0.241572
1002.97 3.46393e-09 1.00046 0.241607
1002.97 3.47748e-09 1.00046 0.241386
1002.96 3.43311e-09 1.00045 0.241098
1002.96 3.44571e-09 1.00045 0.241046
1002.96 3.47062e-09 1.00045 0.240703
1002.97 3.48499e-09 1.00046 0.241221
1002.96 3.44899e-09 1.00046 0.240832
1002.97 3.44292e-09 1.00046 0.240894
1002.88 3.45096e-09 1.00046 0.241585
1002.98 3.46607e-09 1.00046 0.241732
1002.87 3.44592e-09 1.00046 0.241547
1002.88 3.44806e-09 1.00046 0.24157
1003.54 3.92806e-09 1.00045 0.241359
1003.52 3.92329e-09 1.00045 0.241321
1000 0 1.00042 0.241467
1000 0 1.00039 0.241697
1000 0 1.00039 0.241676
1003.5 3.92773e-09 1.00046 0.241239
1000 0 1.00039 0.241653
1003.49 3.92337e-09 1.00046 0.241265
1000 0 1.00039 0.241625
1003.47 3.91824e-09 1.00046 0.241284
1000 0 1.00039 0.241596
1002.93 3.42076e-09 1.00045 0.241564
1002.93 3.4189e-09 1.00045 0.241469
1002.95 3.45102e-09 1.00045 0.241323
1002.94 3.4477e-09 1.00045 0.241244
1002.93 3.41825e-09 1.00045 0.24135
1003.38 3.96974e-09 1.00046 0.241482
1002.93 3.41876e-09 1.00045 0.241342
1002.94 3.448e-09 1.00045 0.241208
1002.95 3.45046e-09 1.00045 0.241289
1002.95 3.44517e-09 1.00045 0.241104
1002.95 3.45483e-09 1.00045 0.241343
1002.95 3.44907e-09 1.00045 0.241115
1002.94 3.44549e-09 1.00045 0.241205
1002.95 3.43562e-09 1.00045 0.241113
1002.95 3.44704e-09 1.00045 0.241108
1002.94 3.45791e-09 1.00045 0.240988
1002.95 3.45161e-09 1.00045 0.241116
1002.95 3.45427e-09 1.00045 0.240886
1002.93 3.42046e-09 1.00045 0.241379
1002.93 3.41952e-09 1.00046 0.241475
1002.94 3.44499e-09 1.00045 0.241262
1002.95 3.44672e-09 1.00045 0.241284
1003.44 3.91985e-09 1.00046 0.241238
1002.93 3.45638e-09 1.00046 0.241508
1002.97 3.46432e-09 1.00046 0.24139
1002.95 3.45409e-09 1.00045 0.241329
1002.95 3.45265e-09 1.00045 0.241068
1002.96 3.4614e-09 1.00045 0.241108
1002.97 3.4696e-09 1.00045 0.241071
1002.96 3.45814e-09 1.00045 0.24082
1002.92 3.45584e-09 1.00046 0.241575
1002.97 3.46415e-09 1.00046 0.241576
1002.9 3.45245e-09 1.00046 0.241578
1002.94 3.44295e-09 1.00045 0.241237
1002.94 3.44537e-09 1.00045 0.241274
1002.95 3.44775e-09 1.00045 0.241142
1002.95 3.45005e-09 1.00045 0.241096
1002.92 3.45607e-09 1.00046 0.241555
1002.97 3.46498e-09 1.00046 0.241487
1002.97 3.47823e-09 1.00046 0.241129
1002.96 3.45645e-09 1.00045 0.241083
1002.95 3.45049e-09 1.00045 0.240884
1002.96 3.46158e-09 1.00045 0.240756
1002.95 3.45397e-09 1.00045 0.240845
1002.96 3.45433e-09 1.00045 0.24056
1002.97 3.46443e-09 1.00046 0.241581
1002.97 3.47672e-09 1.00046 0.241385
1002.89 3.44873e-09 1.00046 0.241613
1002.97 3.46528e-09 1.00046 0.241565
1002.95 3.45605e-09 1.00045 0.241138
1002.95 3.44706e-09 1.00045 0.241109
1002.94 3.44542e-09 1.00045 0.241071
1002.94 3.42867e-09 1.00045 0.240944
1002.95 3.45061e-09 1.00045 0.240822
1002.95 3.42426e-09 1.00045 0.240677
1002.97 3.46432e-09 1.00046 0.241549
1002.96 3.4521e-09 1.00045 0.240549
1002.97 3.48287e-09 1.00046 0.241269
1002.96 3.45083e-09 1.00046 0.240805
1002.96 3.47169e-09 1.00045 0.240461
1002.96 3.47565e-09 1.00045 0.240316
1002.89 3.44545e-09 1.00046 0.241621
1002.98 3.46613e-09 1.00046 0.241617
1002.97 3.47648e-09 1.00046 0.241431
1002.97 3.47851e-09 1.00046 0.241309
1002.97 3.47224e-09 1.00046 0.241285
1003.49 3.91146e-09 1.00046 0.241241
1002.95 3.45373e-09 1.00045 0.241331
1002.91 3.45759e-09 1.00046 0.241611
1002.92 3.46224e-09 1.00046 0.241578
1002.97 3.46406e-09 1.00046 0.24158
1002.96 3.46726e-09 1.00046 0.241354
1002.96 3.45282e-09 1.00045 0.241039
1002.97 3.46379e-09 1.00046 0.241477
1002.97 3.48275e-09 1.00046 0.241142
1002.97 3.4752e-09 1.00046 0.241178
1002.97 3.4717e-09 1.00046 0.24105
1003.51 3.9175e-09 1.00046 0.241244
1002.9 3.45412e-09 1.00046 0.241604
1002.97 3.4636e-09 1.00046 0.241567
1002.97 3.46413e-09 1.00046 0.241605
1002.97 3.4775e-09 1.00046 0.241386
1002.96 3.43234e-09 1.00045 0.24109
1002.96 3.44531e-09 1.00045 0.241042
1002.96 3.46964e-09 1.00045 0.240689
1002.97 3.48522e-09 1.00046 0.241225
1002.96 3.44874e-09 1.00046 0.240868
1002.97 3.44307e-09 1.00046 0.240899
1002.89 3.45315e-09 1.00046 0.241594
1002.97 3.46416e-09 1.00046 0.241647
1002.97 3.48127e-09 1.00046 0.241358
1002.97 3.48174e-09 1.00046 0.24139
1002.97 3.47263e-09 1.00046 0.24125
1002.95 3.6551e-09 1.00045 0.240857
1002.96 3.51646e-09 1.00045 0.240627
1002.95 3.523e-09 1.00045 0.240246
1002.97 3.43921e-09 1.00046 0.24095
1002.97 3.5483e-09 1.00046 0.24065
1002.88 3.45025e-09 1.00046 0.241591
1002.98 3.46558e-09 1.00046 0.241705
1002.98 3.46619e-09 1.00046 0.241735
1002.97 3.47806e-09 1.00046 0.241522
1002.98 3.46692e-09 1.00046 0.241735
1002.87 3.44232e-09 1.00045 0.241534
1002.87 3.44525e-09 1.00046 0.241551
1003.55 3.93529e-09 1.00045 0.241351
1002.88 3.44877e-09 1.00046 0.241574
1003.54 3.92897e-09 1.00045 0.241383
1000 0 1.00042 0.241479
1003.52 3.92226e-09 1.00045 0.241374
1000 0 1.00041 0.241549
1000 0 1.00039 0.241697
1003.52 3.93388e-09 1.00046 0.241228
1003.5 3.92885e-09 1.00046 0.24125
1000 0 1.00039 0.241677
1000 0 1.00039 0.241653
1003.49 3.9221e-09 1.00046 0.241278
1000 0 1.00039 0.241624
1002.95 3.4545e-09 1.00045 0.241341
1002.95 3.45009e-09 1.00045 0.241288
1002.95 3.44914e-09 1.00045 0.241113
1002.95 3.44509e-09 1.00045 0.241096
1002.94 3.44755e-09 1.00045 0.241207
1002.93 3.41993e-09 1.00045 0.24134
1002.94 3.44608e-09 1.00045 0.241205
1002.95 3.43603e-09 1.00045 0.241112
1002.95 3.44739e-09 1.00045 0.241108
1002.94 3.45911e-09 1.00045 0.240979
1002.95 3.45207e-09 1.00045 0.241113
1002.95 3.45542e-09 1.00045 0.240872
1002.95 3.41237e-09 1.00045 0.24112
1002.95 3.48532e-09 1.00045 0.241064
1002.94 3.41869e-09 1.00045 0.240906
1002.94 3.37849e-09 1.00045 0.240918
1002.95 3.41622e-09 1.00045 0.240862
1002.94 3.38183e-09 1.00045 0.240659
1002.94 3.44256e-09 1.00045 0.241234
1002.94 3.44511e-09 1.00045 0.241269
1002.95 3.4477e-09 1.00045 0.241135
1002.95 3.45006e-09 1.00045 0.241096
1002.92 3.45688e-09 1.00046 0.241554
1002.97 3.4646e-09 1.00046 0.241488
1002.97 3.47783e-09 1.00046 0.241133
1002.96 3.45643e-09 1.00045 0.241097
1002.95 3.45074e-09 1.00045 0.240861
1002.95 3.45407e-09 1.00045 0.240854
1002.96 3.4612e-09 1.00045 0.240738
1002.96 3.45451e-09 1.00045 0.240549
1002.97 3.46409e-09 1.00046 0.241589
1002.97 3.47645e-09 1.00046 0.24139
1002.89 3.4495e-09 1.00046 0.241597
1002.97 3.46495e-09 1.00046 0.24157
1002.95 3.45679e-09 1.00045 0.24114
1002.95 3.44777e-09 1.00045 0.241112
1002.94 3.44688e-09 1.00045 0.241073
1002.94 3.43001e-09 1.00045 0.240945
1002.97 3.4646e-09 1.00046 0.241556
1002.97 3.48312e-09 1.00046 0.241279
1002.97 3.45136e-09 1.00046 0.240795
1002.95 3.45161e-09 1.00045 0.240844
1002.95 3.42604e-09 1.00045 0.240678
1002.96 3.47225e-09 1.00045 0.240461
1002.96 3.4536e-09 1.00045 0.240556
1002.96 3.47661e-09 1.00045 0.240329
1002.97 3.4766e-09 1.00046 0.241432
1002.97 3.4725e-09 1.00046 0.241284
1002.97 3.47882e-09 1.00046 0.241303
1002.89 3.44474e-09 1.00046 0.24161
1002.98 3.46634e-09 1.00046 0.241625
1002.94 3.42194e-09 1.00045 0.241054
1002.94 3.45895e-09 1.00045 0.24099
1002.94 3.49054e-09 1.00045 0.240713
1002.95 3.48821e-09 1.00045 0.240523
1002.97 3.48086e-09 1.00046 0.241401
1002.95 3.44427e-09 1.00045 0.240094
1002.97 3.43878e-09 1.00046 0.240996
1002.97 3.53147e-09 1.00046 0.240465
1002.95 3.42346e-09 1.00045 0.240186
1002.88 3.4432e-09 1.00046 0.241594
1002.98 3.47204e-09 1.00046 0.241685
1002.97 3.47743e-09 1.00046 0.241339
1002.97 3.47048e-09 1.00046 0.241314
1002.97 3.46735e-09 1.00046 0.241119
1002.97 3.46704e-09 1.00046 0.241217
1003.51 3.91632e-09 1.00046 0.241236
1002.9 3.45492e-09 1.00046 0.241618
1002.96 3.43311e-09 1.00045 0.241083
1002.97 3.46393e-09 1.00046 0.241603
1002.97 3.46337e-09 1.00046 0.241563
1002.97 3.47748e-09 1.00046 0.241387
1002.96 3.44571e-09 1.00045 0.241039
1002.96 3.47062e-09 1.00045 0.240677
1002.97 3.48499e-09 1.00046 0.241229
1002.97 3.44292e-09 1.00046 0.240905
1002.96 3.44899e-09 1.00046 0.240902
1002.89 3.45239e-09 1.00046 0.241603
1002.97 3.46433e-09 1.00046 0.241648
1002.97 3.48126e-09 1.00046 0.241365
1002.97 3.48178e-09 1.00046 0.241386
1002.97 3.4727e-09 1.00046 0.241242
1002.95 3.66332e-09 1.00045 0.240829
1002.96 3.5189e-09 1.00045 0.240643
1002.95 3.53137e-09 1.00045 0.240234