# vtk DataFile Version 2.0
Wound Healing Simulation
ASCII
DATASET UNSTRUCTURED_GRID
POINTS 3012 float
69.9759 18.75 4
67.2507 60.3285 4
69.976 18.75 2
73.0099 25.446 4
71.1327 20.9142 4
68.6801 16.6661 4
67.8275 19.9218 3.98918
67.2507 60.3286 2
71.1327 54.0858 4
68.6801 58.3339 4
65.6939 62.2254 4
65.3139 59.0062 3.99071
74.6784 42.3946 4
73.7221 47.2057 4
69.9759 18.75 0
73.0099 25.446 2
68.6801 16.6661 2
71.1327 20.9142 2
67.8278 19.9221 2
74.6792 32.6053 4
73.7222 27.7943 4
72.1454 23.1494 4
70.6166 26.2213 3.98808
68.8881 21.9554 3.98875
67.2507 14.6715 4
66.6388 17.9665 3.98995
65.8044 21.0173 3.98512
67.2507 60.3285 0
71.1327 54.0858 2
68.6801 58.3339 2
65.694 62.2255 2
65.314 59.0063 2
72.1454 51.8506 4
69.9759 56.25 4
68.8391 53.1153 3.9888
64.0165 64.0165 4
66.6126 57.1385 3.99016
63.8872 60.7704 3.99155
63.5059 57.7824 3.98614
60.3285 67.2507 4
74.6792 42.3947 2
73.7222 47.2057 2
74.9194 39.9526 4
74.2788 44.8158 4
72.17 42.0853 3.98731
73.0099 49.554 4
71.2518 46.5972 3.98815
73.0099 25.446 0
71.1327 20.9142 0
68.6801 16.6661 0
67.8275 19.9218 0.0108229
74.6792 32.6053 2
73.7222 27.7943 2
67.2508 14.6715 2
72.1455 23.1494 2
70.6168 26.2223 2
66.639 17.9666 2
68.8883 21.956 2
65.8046 21.0171 2
74.9197 35.0474 4
74.2794 30.1841 4
72.1867 32.9435 3.98774
71.2805 28.432 3.98803
69.8181 24.0587 3.98841
68.3541 26.9491 3.98263
66.7702 22.9274 3.98455
65.694 12.7746 4
65.3252 16.098 3.9909
64.7203 19.1846 3.9858
63.8993 22.0227 3.98295
71.1327 54.0858 0
65.6939 62.2254 0
68.6801 58.3339 0
65.3139 59.0062 0.00928695
72.1455 51.8506 2
69.9759 56.25 2
68.8393 53.1148 2
64.0165 64.0165 2
66.6128 57.1385 2
63.8873 60.7704 2
63.506 57.7826 2
62.2254 65.694 4
58.894 65.417 3.99254
69.7718 50.9895 3.98838
67.7861 55.1711 3.98954
66.658 52.2146 3.98468
62.3371 62.4311 3.99213
64.6678 56.0409 3.98628
62.2067 59.4155 3.98639
61.8325 56.6966 3.98429
58.3339 68.6801 4
60.3285 67.2508 2
73.7221 47.2057 0
74.6784 42.3946 0
74.9197 39.9526 2
74.2794 44.8159 2
72.17 42.0849 2
73.0099 49.554 2
71.2518 46.5964 2
75 37.5 4
72.407 39.8021 3.98676
71.7847 44.3522 3.98787
69.8101 41.7897 3.98128
70.5779 48.813 3.98824
68.9196 46.0159 3.98207
74.6792 32.6053 0
73.7222 27.7943 0
67.2507 14.6715 0
72.1454 23.1494 0
70.6166 26.2213 0.0119205
68.8881 21.9554 0.0112543
66.6388 17.9665 0.0100539
65.8044 21.0173 0.0148803
74.9197 35.0474 2
74.2794 30.1841 2
72.1866 32.9439 2
71.2805 28.433 2
65.694 12.7745 2
65.3253 16.0979 2
69.8183 24.0596 2
68.354 26.9491 2
64.7204 19.1844 2
66.7704 22.9273 2
63.8994 22.0226 2
72.4149 35.2242 3.987
71.806 30.6767 3.98812
69.8462 33.2682 3.98173
68.9731 29.0369 3.982
67.619 24.9081 3.9837
66.2066 27.6291 3.98046
64.0165 10.9835 4
64.7695 23.8198 3.98247
63.8913 14.3226 3.99161
63.5183 17.4352 3.98648
62.918 20.3054 3.98345
62.1097 22.9265 3.98191
60.6845 11.0943 3.99223
57.6128 11.4386 3.98739
72.1454 51.8506 0
69.9759 56.25 0
68.8391 53.1153 0.0112018
64.0165 64.0165 0
63.8872 60.7704 0.00845055
66.6126 57.1385 0.00983604
63.5059 57.7824 0.0138588
62.2255 65.694 2
58.8942 65.4171 2
69.772 50.9887 2
67.7863 55.1709 2
66.6582 52.2148 2
62.3373 62.4312 2
64.6679 56.0412 2
62.2068 59.4158 2
61.8327 56.6968 2
60.6691 63.9802 3.99233
57.0245 66.7374 3.99281
57.558 63.6984 3.98752
67.5159 50.1803 3.98369
65.7101 54.1808 3.98573
64.5519 51.3953 3.98219
60.7754 60.948 3.98696
62.8319 55.0822 3.9846
60.6653 58.1748 3.98424
60.3405 55.8048 3.9835
56.25 69.9759 4
58.3339 68.6801 2
60.3285 67.2507 0
58.9214 9.65275 3.99255
62.2254 9.30607 4
73.0099 49.554 0
74.2788 44.8158 0
71.2518 46.5972 0.0118525
72.17 42.0853 0.0126943
74.9194 39.9526 0
75 37.5 2
72.4069 39.8019 2
71.7847 44.3516 2
69.8099 41.7895 2
70.578 48.8121 2
68.9195 46.0156 2
72.4903 37.512 3.98659
70.0464 39.6573 3.98051
69.4371 43.9079 3.98175
67.6077 41.4993 3.97878
68.2739 48.1093 3.98277
66.722 45.4437 3.97995
74.9197 35.0474 0
74.2794 30.1841 0
72.1867 32.9435 0.0122645
71.2805 28.432 0.0119714
65.694 12.7746 0
65.3252 16.098 0.009103
69.8181 24.0587 0.0115881
68.3541 26.9491 0.0173653
66.7702 22.9274 0.0154461
64.7203 19.1846 0.0141956
63.8993 22.0227 0.0170546
72.4148 35.2245 2
71.806 30.6774 2
69.8461 33.2683 2
68.9729 29.0371 2
64.0165 10.9835 2
63.8913 14.3225 2
63.5184 17.435 2
67.619 24.908 2
66.2065 27.6289 2
62.9182 20.3053 2
64.7695 23.8196 2
62.1097 22.9265 2
60.6846 11.0943 2
57.6128 11.4383 2
70.0635 35.392 3.98117
69.4738 31.1489 3.98195
67.6662 33.5891 3.9792
66.7838 29.6188 3.97971
65.5368 25.6915 3.98153
64.1629 28.2465 3.97975
62.3425 12.6512 3.992
62.8747 24.6229 3.98166
62.2022 15.7733 3.98674
61.8224 18.6686 3.98432
61.2326 21.3229 3.98194
60.4466 23.7075 3.98173
59.2474 12.7693 3.98694
55.8744 10.2256 3.98832
56.4067 13.101 3.98455
69.7718 50.9895 0.0116236
62.2254 65.694 0
58.894 65.417 0.00746229
67.7861 55.1711 0.0104617
66.658 52.2146 0.0153179
62.3371 62.4311 0.00787357
62.2067 59.4155 0.0136068
64.6678 56.0409 0.0137162
61.8325 56.6966 0.0157149
60.6692 63.9803 2
57.0246 66.7375 2
57.558 63.6989 2
67.516 50.1804 2
65.7103 54.1811 2
64.552 51.3955 2
60.7755 60.9485 2
62.8321 55.0825 2
60.6655 58.1751 2
60.3407 55.8049 2
55.0699 67.9341 3.99312
59.2205 62.3748 3.98715
55.8038 64.9151 3.98813
56.3283 62.0991 3.98481
65.3458 49.4159 3.98124
63.7197 53.3048 3.98361
62.4613 50.666 3.9809
59.3378 59.5707 3.98487
61.0926 54.3272 3.98384
59.2986 57.0313 3.98281
59.2567 55.2041 3.98368
48.102 68.5818 3.98995
50.9479 69.9333 3.99367
54.0858 71.1327 4
56.25 69.976 2
58.3339 68.6801 0
57.0584 8.33278 3.99298
60.3285 7.74928 4
58.9215 9.65269 2
62.2255 9.30602 2
70.5779 48.813 0.0117616
71.7847 44.3522 0.0121318
68.9196 46.0159 0.0179304
69.8101 41.7897 0.0187151
72.407 39.8021 0.013238
75 37.5 0
72.4902 37.5121 2
70.0462 39.6571 2
69.437 43.9076 2
67.6075 41.4992 2
68.2739 48.1092 2
66.7218 45.4438 2
70.1344 37.5215 3.98043
67.8437 39.5131 3.97803
67.2349 43.4726 3.97939
65.5705 41.2132 3.97804
66.0819 47.4234 3.98055
64.669 44.8549 3.97919
72.4149 35.2242 0.0130011
71.806 30.6767 0.0118842
69.8462 33.2682 0.0182681
68.9731 29.0369 0.0180031
64.0165 10.9835 0
63.8913 14.3226 0.00839088
63.5183 17.4352 0.0135248
67.619 24.9081 0.016295
66.2066 27.6291 0.0195416
64.7695 23.8198 0.0175255
62.918 20.3054 0.0165479
62.1097 22.9265 0.0180945
60.6845 11.0943 0.00777355
57.6128 11.4386 0.0126142
70.0633 35.392 2
69.4736 31.1491 2
67.6659 33.5889 2
66.7835 29.6186 2
62.3426 12.6512 2
62.2022 15.773 2
61.8226 18.6685 2
65.5368 25.6913 2
64.1626 28.2464 2
61.2327 21.323 2
62.8746 24.6228 2
60.4465 23.7077 2
59.2474 12.7689 2
56.4067 13.1007 2
55.8744 10.2252 2
67.8804 35.5467 3.97878
67.2767 31.6194 3.97964
65.7127 33.924 3.97826
64.679 30.1852 3.97864
63.5557 26.4025 3.98071
62.2782 28.7657 3.98015
60.7771 14.213 3.9868
61.0672 25.32 3.98156
60.6183 17.1125 3.98489
60.2342 19.7969 3.98293
59.6795 22.2369 3.98091
59.0024 24.2981 3.98213
54.0373 9.12921 3.98911
57.9126 14.3188 3.98476
54.7875 12.0009 3.98499
55.3149 14.6318 3.98342
67.5159 50.1803 0.0163146
57.0245 66.7374 0.00718903
60.6691 63.9802 0.00767117
57.558 63.6984 0.0124839
65.7101 54.1808 0.0142699
64.5519 51.3953 0.0178072
60.7754 60.948 0.0130389
60.6653 58.1748 0.0157596
62.8319 55.0822 0.0154018
60.3405 55.8048 0.0164964
55.0701 67.9342 2
59.2205 62.3752 2
55.8038 64.9155 2
56.3283 62.0995 2
65.3458 49.4161 2
63.7199 53.3051 2
62.4614 50.6661 2
59.3379 59.5712 2
61.0928 54.3274 2
59.2988 57.0315 2
59.257 55.2042 2
53.0419 69.0017 3.99344
53.9658 66.0169 3.98876
57.8835 60.8816 3.98489
54.6839 63.2141 3.98518
55.214 60.6267 3.98358
63.2135 48.6724 3.98015
61.76 52.5916 3.98254
60.2982 50.0366 3.98024
58.0245 58.2773 3.98355
59.345 53.9682 3.98303
58.1387 55.8342 3.98145
50.1084 67.8599 3.98967
47.4621 66.5859 3.98744
46.0559 69.1612 3.99018
48.1021 68.5822 2
48.8022 70.7244 3.99387
50.948 69.9335 2
51.8506 72.1454 4
54.0858 71.1327 2
56.25 69.9759 0
55.1027 7.13747 3.99332
58.3339 6.31992 4
57.0586 8.33269 2
60.3286 7.74926 2
58.9214 9.65275 0.00744992
62.2254 9.30607 0
68.2739 48.1093 0.0172262
69.4371 43.9079 0.0182508
66.722 45.4437 0.0200544
67.6077 41.4993 0.0212172
70.0464 39.6573 0.0194901
72.4903 37.512 0.0134091
70.1342 37.5214 2
67.8435 39.513 2
67.2348 43.4726 2
65.5703 41.2131 2
66.0819 47.4236 2
64.6688 44.855 2
67.9398 37.522 3.97776
65.8009 39.372 3.97742
65.1916 43.0302 3.9785
63.7742 40.9344 3.97815
63.9836 46.7254 3.97961
62.8282 44.2251 3.97971
70.0635 35.392 0.0188274
69.4738 31.1489 0.0180506
67.6662 33.5891 0.0208042
66.7838 29.6188 0.0202902
62.3425 12.6512 0.00800332
62.2022 15.7733 0.0132571
61.8224 18.6686 0.015683
65.5368 25.6915 0.0184655
64.1629 28.2465 0.0202508
62.8747 24.6229 0.0183445
61.2326 21.3229 0.0180572
60.4466 23.7075 0.0182694
59.2474 12.7693 0.0130567
56.4067 13.101 0.0154524
55.8744 10.2256 0.0116815
67.8802 35.5465 2
67.2764 31.6193 2
65.7124 33.9237 2
64.6786 30.185 2
60.7772 14.2127 2
60.6185 17.1122 2
60.2344 19.7969 2
63.5555 26.4024 2
62.2778 28.7656 2
59.6795 22.2371 2
61.067 25.3201 2
59.0022 24.2984 2
57.9126 14.3185 2
55.3149 14.6316 2
54.0374 9.1288 2
54.7874 12.0005 2
65.8906 35.6653 3.97787
65.2021 32.1491 3.97845
64.3024 34.246 3.97774
62.6155 30.626 3.97864
61.6733 27.0573 3.98051
60.8747 29.1261 3.98183
59.314 15.655 3.9849
59.3571 25.7761 3.98275
59.131 18.3374 3.98396
58.7544 20.8322 3.98152
58.306 23.0689 3.98004
57.9941 24.6416 3.98305
52.112 8.14799 3.98964
53.0581 11.0074 3.98588
56.6796 15.7271 3.98401
53.8111 13.6677 3.9832
54.3792 15.9829 3.98331
55.0699 67.9341 0.00687618
65.3458 49.4159 0.0187645
55.8038 64.9151 0.0118715
59.2205 62.3748 0.0128479
56.3283 62.0991 0.015195
63.7197 53.3048 0.0163859
62.4613 50.666 0.0191016
59.3378 59.5707 0.0151335
59.2986 57.0313 0.0171919
61.0926 54.3272 0.0161618
59.2567 55.2041 0.016316
53.0421 69.0018 2
53.9659 66.0173 2
57.8835 60.882 2
54.6839 63.2145 2
55.214 60.6271 2
63.2135 48.6726 2
61.7602 52.5918 2
60.2982 50.0367 2
58.0247 58.2777 2
59.3453 53.9682 2
58.1389 55.8343 2
52.0693 67.0032 3.98929
52.9526 64.224 3.98573
56.6525 59.5022 3.98396
[...]
POINT_DATA 3012
SCALARS Jp_lamdaP float 4
LOOKUP_TABLE default
1 1 1 1
1 1 1 1
1 1 1 1
1 1 1 1
1 1 1 1
1 1 1 1
0.999973 1 1 0.999973
1 1 1 1
1 1 1 1
1 1 1 1
1 1 1 1
0.999999 1 1 0.999999
1 1 1 1
1 1 1 1
1 1 1 1
1 1 1 1
1 1 1 1
1 1 1 1
0.999973 1 1 0.999973
1 1 1 1
1 1 1 1
1 1 1 1
0.999944 1 1 0.999944
0.999965 1 1 0.999965
1 1 1 1
0.99998 1 1 0.99998
0.999902 1 1 0.999902
1 1 1 1
1 1 1 1
1 1 1 1
1 1 1 1
1 1 1 1
1 1 1 1
1 1 1 1
0.999985 1 1 0.999985
1 1 1 1
0.999997 1 1 0.999997
1 1 1 1
0.999922 1 1 0.999922
1 1 1 1
1 1 1 1
1 1 1 1
1 1 1 1
1 1 1 1
0.999959 1 1 0.999959
1 1 1 1
0.999971 1 1 0.999971
1 1 1 1
1 1 1 1
1 1 1 1
0.999973 1 1 0.999973
1 1 1 1
1 1 1 1
1 1 1 1
1 1 1 1
0.999945 1 1 0.999945
0.999981 1 1 0.999981
0.999965 1 1 0.999965
0.9999 1 1 0.9999
1 1 1 1
1 1 1 1
0.999962 1 1 0.999962
0.999936 1 1 0.999936
0.999955 1 1 0.999955
0.999833 1 1 0.999833
0.999873 1 1 0.999873
1 1 1 1
0.999987 1 1 0.999987
0.999921 1 1 0.999921
0.999788 1 1 0.999788
1 1 1 1
1 1 1 1
1 1 1 1
1 1 1 1
1 1 1 1
1 1 1 1
0.999987 1 1 0.999987
1 1 1 1
0.999998 1 1 0.999998
1 1 1 1
0.999921 1 1 0.999921
1 1 1 1
1 1 1 1
0.999978 1 1 0.999978
0.999992 1 1 0.999992
0.999863 1 1 0.999863
1 1 1 1
0.999911 1 1 0.999911
0.999933 1 1 0.999933
0.999834 1 1 0.999834
1 1 1 1
1 1 1 1
1 1 1 1
1 1 1 1
1 1 1 1
1 1 1 1
0.999961 1 1 0.999961
1 1 1 1
0.999972 1 1 0.999972
1 1 1 1
0.999954 1 1 0.999954
0.999965 1 1 0.999965
0.999778 1 1 0.999778
0.999974 1 1 0.999974
0.999804 1 1 0.999804
1 1 1 1
1 1 1 1
1 1 1 1
1 1 1 1
0.999946 1 1 0.999946
0.999966 1 1 0.999966
0.999982 1 1 0.999982
0.999897 1 1 0.999897
1 1 1 1
1 1 1 1
0.999947 1 1 0.999947
0.999937 1 1 0.999937
1 1 1 1
0.999993 1 1 0.999993
0.999956 1 1 0.999956
0.999826 1 1 0.999826
0.999918 1 1 0.999918
0.999878 1 1 0.999878
0.999789 1 1 0.999789
0.999959 1 1 0.999959
0.999935 1 1 0.999935
0.999792 1 1 0.999792
0.999805 1 1 0.999805
0.999848 1 1 0.999848
0.999727 1 1 0.999727
1 1 1 1
0.999776 1 1 0.999776
1 1 1 1
0.999926 1 1 0.999926
0.999802 1 1 0.999802
0.999744 1 1 0.999744
1 1 1 1
0.999947 1 1 0.999947
1 1 1 1
1 1 1 1
0.999989 1 1 0.999989
1 1 1 1
1 1 1 1
0.999999 1 1 0.999999
0.999921 1 1 0.999921
1 1 1 1
1 1 1 1
0.99998 1 1 0.99998
0.999994 1 1 0.999994
0.999864 1 1 0.999864
1 1 1 1
0.999911 1 1 0.999911
0.999933 1 1 0.999933
0.99983 1 1 0.99983
1 1 1 1
1 1 1 1
0.999954 1 1 0.999954
0.999838 1 1 0.999838
0.999891 1 1 0.999891
0.999768 1 1 0.999768
0.999945 1 1 0.999945
0.999821 1 1 0.999821
0.999839 1 1 0.999839
0.999794 1 1 0.999794
1 1 1 1
1 1 1 1
1 1 1 1
1 1 1 1
1 1 1 1
1 1 1 1
1 1 1 1
0.999973 1 1 0.999973
0.999963 1 1 0.999963
1 1 1 1
1 1 1 1
0.999955 1 1 0.999955
0.999967 1 1 0.999967
0.999778 1 1 0.999778
0.999975 1 1 0.999975
0.999804 1 1 0.999804
0.999954 1 1 0.999954
0.999767 1 1 0.999767
0.999791 1 1 0.999791
0.99969 1 1 0.99969
0.999819 1 1 0.999819
0.999717 1 1 0.999717
1 1 1 1
1 1 1 1
0.999931 1 1 0.999931
0.999937 1 1 0.999937
1 1 1 1
1 1 1 1
0.999957 1 1 0.999957
0.999819 1 1 0.999819
0.999883 1 1 0.999883
0.999916 1 1 0.999916
0.99979 1 1 0.99979
0.999957 1 1 0.999957
0.999935 1 1 0.999935
0.999778 1 1 0.999778
0.99981 1 1 0.99981
1 1 1 1
1 1 1 1
0.99993 1 1 0.99993
0.999849 1 1 0.999849
0.999718 1 1 0.999718
0.9998 1 1 0.9998
0.99978 1 1 0.99978
0.999745 1 1 0.999745
1 1 1 1
0.999947 1 1 0.999947
0.99977 1 1 0.99977
0.999797 1 1 0.999797
0.999695 1 1 0.999695
0.99969 1 1 0.99969
0.99976 1 1 0.99976
0.999684 1 1 0.999684
1 1 1 1
0.999736 1 1 0.999736
0.999935 1 1 0.999935
0.999819 1 1 0.999819
0.999756 1 1 0.999756
0.999733 1 1 0.999733
0.999942 1 1 0.999942
0.999957 1 1 0.999957
0.999838 1 1 0.999838
0.999982 1 1 0.999982
1 1 1 1
1 1 1 1
0.999995 1 1 0.999995
0.999864 1 1 0.999864
1 1 1 1
0.999933 1 1 0.999933
0.999911 1 1 0.999911
0.999827 1 1 0.999827
1 1 1 1
1 1 1 1
0.999954 1 1 0.999954
0.999838 1 1 0.999838
0.999892 1 1 0.999892
0.999768 1 1 0.999768
0.999945 1 1 0.999945
0.999824 1 1 0.999824
0.999839 1 1 0.999839
0.999789 1 1 0.999789
1 1 1 1
0.999951 1 1 0.999951
0.99996 1 1 0.99996
0.999853 1 1 0.999853
0.999745 1 1 0.999745
0.9998 1 1 0.9998
0.999721 1 1 0.999721
0.999849 1 1 0.999849
0.999781 1 1 0.999781
0.999781 1 1 0.999781
0.999761 1 1 0.999761
0.999984 1 1 0.999984
1 1 1 1
1 1 1 1
1 1 1 1
1 1 1 1
1 1 1 1
1 1 1 1
1 1 1 1
1 1 1 1
0.999976 1 1 0.999976
0.999969 1 1 0.999969
0.999804 1 1 0.999804
0.999778 1 1 0.999778
0.999956 1 1 0.999956
1 1 1 1
0.999954 1 1 0.999954
0.999767 1 1 0.999767
0.999791 1 1 0.999791
0.99969 1 1 0.99969
0.999819 1 1 0.999819
0.999717 1 1 0.999717
0.999765 1 1 0.999765
0.999681 1 1 0.999681
0.999702 1 1 0.999702
0.999661 1 1 0.999661
0.999731 1 1 0.999731
0.999686 1 1 0.999686
0.999956 1 1 0.999956
0.999935 1 1 0.999935
0.999763 1 1 0.999763
0.999815 1 1 0.999815
1 1 1 1
1 1 1 1
0.999935 1 1 0.999935
0.999849 1 1 0.999849
0.99971 1 1 0.99971
0.999784 1 1 0.999784
0.999798 1 1 0.999798
0.999745 1 1 0.999745
1 1 1 1
0.999947 1 1 0.999947
0.999764 1 1 0.999764
0.999797 1 1 0.999797
0.999693 1 1 0.999693
0.999699 1 1 0.999699
1 1 1 1
0.999935 1 1 0.999935
0.999825 1 1 0.999825
0.999761 1 1 0.999761
0.999682 1 1 0.999682
0.99975 1 1 0.99975
0.999736 1 1 0.999736
0.999732 1 1 0.999732
0.999943 1 1 0.999943
0.999834 1 1 0.999834
0.999957 1 1 0.999957
0.999693 1 1 0.999693
0.999691 1 1 0.999691
0.99965 1 1 0.99965
0.999656 1 1 0.999656
0.999719 1 1 0.999719
0.999685 1 1 0.999685
0.999941 1 1 0.999941
0.999729 1 1 0.999729
0.999844 1 1 0.999844
0.999764 1 1 0.999764
0.999719 1 1 0.999719
0.999746 1 1 0.999746
0.999971 1 1 0.999971
0.999844 1 1 0.999844
0.999827 1 1 0.999827
0.99979 1 1 0.99979
0.999838 1 1 0.999838
1 1 1 1
1 1 1 1
0.999954 1 1 0.999954
0.999893 1 1 0.999893
0.999768 1 1 0.999768
0.999945 1 1 0.999945
0.999838 1 1 0.999838
0.999827 1 1 0.999827
0.999785 1 1 0.999785
1 1 1 1
0.999951 1 1 0.999951
0.99996 1 1 0.99996
0.999853 1 1 0.999853
0.999745 1 1 0.999745
0.999801 1 1 0.999801
0.999721 1 1 0.999721
0.999849 1 1 0.999849
0.999785 1 1 0.999785
0.99978 1 1 0.99978
0.999769 1 1 0.999769
1 1 1 1
0.999967 1 1 0.999967
0.999853 1 1 0.999853
0.999855 1 1 0.999855
0.999789 1 1 0.999789
0.999706 1 1 0.999706
0.999754 1 1 0.999754
0.999704 1 1 0.999704
0.999785 1 1 0.999785
0.999756 1 1 0.999756
0.999723 1 1 0.999723
0.999979 1 1 0.999979
0.99989 1 1 0.99989
0.999988 1 1 0.999988
0.999985 1 1 0.999985
1 1 1 1
1 1 1 1
1 1 1 1
1 1 1 1
1 1 1 1
1 1 1 1
1 1 1 1
1 1 1 1
1 1 1 1
1 1 1 1
1 1 1 1
0.999819 1 1 0.999819
0.999791 1 1 0.999791
0.999717 1 1 0.999717
0.999689 1 1 0.999689
0.999767 1 1 0.999767
0.999954 1 1 0.999954
0.999765 1 1 0.999765
0.999681 1 1 0.999681
0.999702 1 1 0.999702
0.999661 1 1 0.999661
0.999731 1 1 0.999731
0.999686 1 1 0.999686
0.999678 1 1 0.999678
0.999657 1 1 0.999657
0.99967 1 1 0.99967
0.999655 1 1 0.999655
0.999699 1 1 0.999699
0.999697 1 1 0.999697
0.999759 1 1 0.999759
0.999797 1 1 0.999797
0.99969 1 1 0.99969
0.999708 1 1 0.999708
1 1 1 1
0.999935 1 1 0.999935
0.999831 1 1 0.999831
0.999761 1 1 0.999761
0.99968 1 1 0.99968
0.999736 1 1 0.999736
0.999743 1 1 0.999743
0.999731 1 1 0.999731
0.999943 1 1 0.999943
0.999831 1 1 0.999831
0.999957 1 1 0.999957
0.999687 1 1 0.999687
0.999691 1 1 0.999691
0.999645 1 1 0.999645
0.999658 1 1 0.999658
0.999941 1 1 0.999941
0.999844 1 1 0.999844
0.999769 1 1 0.999769
0.999721 1 1 0.999721
0.999688 1 1 0.999688
0.999714 1 1 0.999714
0.999729 1 1 0.999729
0.999749 1 1 0.999749
0.999844 1 1 0.999844
0.999784 1 1 0.999784
0.99997 1 1 0.99997
0.999828 1 1 0.999828
0.999646 1 1 0.999646
0.999643 1 1 0.999643
0.999622 1 1 0.999622
0.999652 1 1 0.999652
0.99972 1 1 0.99972
0.999703 1 1 0.999703
0.999848 1 1 0.999848
0.999754 1 1 0.999754
0.999788 1 1 0.999788
0.999722 1 1 0.999722
0.999697 1 1 0.999697
0.999752 1 1 0.999752
0.99998 1 1 0.99998
0.999837 1 1 0.999837
0.999795 1 1 0.999795
0.999769 1 1 0.999769
0.999763 1 1 0.999763
1 1 1 1
0.999744 1 1 0.999744
0.99996 1 1 0.99996
0.99995 1 1 0.99995
0.999852 1 1 0.999852
0.999801 1 1 0.999801
0.999721 1 1 0.999721
0.999849 1 1 0.999849
0.999778 1 1 0.999778
0.99979 1 1 0.99979
0.999777 1 1 0.999777
1 1 1 1
0.999968 1 1 0.999968
0.999853 1 1 0.999853
0.999855 1 1 0.999855
0.999788 1 1 0.999788
0.999705 1 1 0.999705
0.999754 1 1 0.999754
0.999702 1 1 0.999702
0.999786 1 1 0.999786
0.999759 1 1 0.999759
0.999728 1 1 0.999728
0.999974 1 1 0.999974
0.99986 1 1 0.99986
0.999789 1 1 0.999789
0.999788 1 1 0.999788
0.999761 1 1 0.999761
0.999698 1 1 0.999698
0.999731 1 1 0.999731
0.999718 1 1 0.999718
0.999732 1 1 0.999732
0.999695 1 1 0.999695
0.999981 1 1 0.999981
0.999866 1 1 0.999866
0.999884 1 1 0.999884
0.99982 1 1 0.99982
0.999898 1 1 0.999898
0.99999 1 1 0.99999
0.999989 1 1 0.999989
1 1 1 1
0.999986 1 1 0.999986
1 1 1 1
1 1 1 1
1 1 1 1
1 1 1 1
1 1 1 1
1 1 1 1
1 1 1 1
1 1 1 1
1 1 1 1
1 1 1 1
1 1 1 1
0.999731 1 1 0.999731
0.999702 1 1 0.999702
0.999686 1 1 0.999686
0.999661 1 1 0.999661
0.999681 1 1 0.999681
0.999765 1 1 0.999765
0.999678 1 1 0.999678
0.999657 1 1 0.999657
0.99967 1 1 0.99967
0.999653 1 1 0.999653
0.999699 1 1 0.999699
0.999697 1 1 0.999697
0.999652 1 1 0.999652
0.999653 1 1 0.999653
0.999667 1 1 0.999667
0.999646 1 1 0.999646
0.999703 1 1 0.999703
0.999713 1 1 0.999713
0.999682 1 1 0.999682
0.999691 1 1 0.999691
0.99964 1 1 0.99964
0.999659 1 1 0.999659
0.999941 1 1 0.999941
0.999844 1 1 0.999844
0.999775 1 1 0.999775
0.999724 1 1 0.999724
0.999691 1 1 0.999691
0.999729 1 1 0.999729
0.999709 1 1 0.999709
0.999752 1 1 0.999752
0.999845 1 1 0.999845
0.999779 1 1 0.999779
0.999969 1 1 0.999969
0.999829 1 1 0.999829
0.999647 1 1 0.999647
0.999644 1 1 0.999644
0.999619 1 1 0.999619
0.999653 1 1 0.999653
0.999848 1 1 0.999848
0.999793 1 1 0.999793
0.999721 1 1 0.999721
0.999718 1 1 0.999718
0.999712 1 1 0.999712
0.999695 1 1 0.999695
0.999755 1 1 0.999755
0.999761 1 1 0.999761
0.999795 1 1 0.999795
0.99976 1 1 0.99976
0.999767 1 1 0.999767
0.99997 1 1 0.99997
0.99984 1 1 0.99984
0.999629 1 1 0.999629
0.99961 1 1 0.99961
0.999672 1 1 0.999672
0.99974 1 1 0.99974
0.999803 1 1 0.999803
0.999786 1 1 0.999786
0.999751 1 1 0.999751
0.999672 1 1 0.999672
0.999682 1 1 0.999682
0.99997 1 1 0.99997
0.99987 1 1 0.99987
0.999771 1 1 0.999771
0.999773 1 1 0.999773
0.999722 1 1 0.999722
0.99974 1 1 0.99974
1 1 1 1
0.999968 1 1 0.999968
0.999704 1 1 0.999704
0.999855 1 1 0.999855
0.999853 1 1 0.999853
0.999786 1 1 0.999786
0.999755 1 1 0.999755
0.9997 1 1 0.9997
0.999786 1 1 0.999786
0.999732 1 1 0.999732
0.999762 1 1 0.999762
0.999975 1 1 0.999975
0.99986 1 1 0.99986
0.999792 1 1 0.999792
0.999787 1 1 0.999787
0.999758 1 1 0.999758
0.999697 1 1 0.999697
0.999729 1 1 0.999729
0.99972 1 1 0.99972
0.999729 1 1 0.999729
0.999689 1 1 0.999689
0.999867 1 1 0.999867
0.999777 1 1 0.999777
0.999748 1 1 0.999748
0.999743 1 1 0.999743
0.999735 1 1 0.999735
0.999753 1 1 0.999753
0.999689 1 1 0.999689
0.999706 1 1 0.999706
0.999692 1 1 0.999692
0.999627 1 1 0.999627
0.999982 1 1 0.999982
0.999871 1 1 0.999871
0.999789 1 1 0.999789
0.999877 1 1 0.999877
0.999898 1 1 0.999898
0.99981 1 1 0.99981
0.999759 1 1 0.999759
0.999807 1 1 0.999807
0.999904 1 1 0.999904
0.999992 1 1 0.999992
0.999991 1 1 0.999991
1 1 1 1
0.999989 1 1 0.999989
1 1 1 1
1 1 1 1
1 1 1 1
1 1 1 1
1 1 1 1
1 1 1 1
1 1 1 1
1 1 1 1
1 1 1 1
1 1 1 1
1 1 1 1
0.999698 1 1 0.999698
0.99967 1 1 0.99967
0.999697 1 1 0.999697
0.999651 1 1 0.999651
0.999656 1 1 0.999656
0.999679 1 1 0.999679
0.999652 1 1 0.999652
0.999654 1 1 0.999654
0.999664 1 1 0.999664
0.99964 1 1 0.99964
0.999703 1 1 0.999703
0.99972 1 1 0.99972
0.999656 1 1 0.999656
0.999652 1 1 0.999652
0.999666 1 1 0.999666
0.999756 1 1 0.999756
0.999648 1 1 0.999648
0.999645 1 1 0.999645
0.999617 1 1 0.999617
0.999654 1 1 0.999654
0.999849 1 1 0.999849
0.999797 1 1 0.999797
0.999721 1 1 0.999721
0.999716 1 1 0.999716
0.999722 1 1 0.999722
0.999755 1 1 0.999755
0.999692 1 1 0.999692
0.99977 1 1 0.99977
0.999795 1 1 0.999795
0.999758 1 1 0.999758
0.999766 1 1 0.999766
0.999961 1 1 0.999961
0.999842 1 1 0.999842
0.999625 1 1 0.999625
0.999615 1 1 0.999615
0.999675 1 1 0.999675
0.999802 1 1 0.999802
0.999757 1 1 0.999757
0.99967 1 1 0.99967
0.999736 1 1 0.999736
0.999694 1 1 0.999694
0.999783 1 1 0.999783
0.99997 1 1 0.99997
0.999772 1 1 0.999772
0.999744 1 1 0.999744
0.999724 1 1 0.999724
0.999774 1 1 0.999774
0.999863 1 1 0.999863
0.999619 1 1 0.999619
0.99961 1 1 0.99961
0.999707 1 1 0.999707
0.999782 1 1 0.999782
0.999773 1 1 0.999773
0.999728 1 1 0.999728
0.999694 1 1 0.999694
0.999633 1 1 0.999633
0.999978 1 1 0.999978
0.999886 1 1 0.999886
0.999792 1 1 0.999792
0.999703 1 1 0.999703
0.999745 1 1 0.999745
0.999705 1 1 0.999705
0.999976 1 1 0.999976
0.99986 1 1 0.99986
0.999696 1 1 0.999696
0.999786 1 1 0.999786
0.999796 1 1 0.999796
0.999754 1 1 0.999754
0.999728 1 1 0.999728
0.999722 1 1 0.999722
0.999726 1 1 0.999726
0.999682 1 1 0.999682
0.999867 1 1 0.999867
0.99978 1 1 0.99978
0.999754 1 1 0.999754
0.999747 1 1 0.999747
0.999738 1 1 0.999738
0.999757 1 1 0.999757
0.999692 1 1 0.999692
0.999722 1 1 0.999722
0.999687 1 1 0.999687
0.999621 1 1 0.999621
0.99978 1 1 0.99978
0.999722 1 1 0.999722
0.99971 1 1 0.99971
0.999711 1 1 0.999711
0.999763 1 1 0.999763
0.999754 1 1 0.999754
0.999625 1 1 0.999625
0.999886 1 1.00029 0.9996
0.999876 1 1 0.999876
0.999794 1 1 0.999794
0.999745 1 1 0.999745
0.999898 1 1 0.999898
0.9998 1 1 0.9998
0.999904 1 1 0.999904
0.999752 1 1 0.999752
0.99981 1 1 0.99981
0.999714 1 1 0.999714
0.999748 1 1 0.999748
0.999812 1 1 0.999812
0.999907 1 1 0.999907
0.999993 1 1 0.999993
0.999992 1 1 0.999992
1 1 1 1
0.999991 1 1 0.999991
1 1 1 1
1 1 1 1
1 1 1 1
1 1 1 1
1 1 1 1
1 1 1 1
1 1 1 1
1 1 1 1
1 1 1 1
1 1 1 1
1 1 1 1
0.999704 1 1 0.999704
0.999661 1 1 0.999661
0.999727 1 1 0.999727
0.999634 1 1 0.999634
0.999654 1 1 0.999654
0.999651 1 1 0.999651
0.999653 1 1 0.999653
0.999651 1 1 0.999651
0.99967 1 1 0.99967
0.999753 1 1 0.999753
0.999654 1 1 0.999654
0.999662 1 1 0.999662
0.999716 1 1 0.999716
0.999622 1 1 0.999622
0.999619 1 1 0.999619
0.999678 1 1 0.999678
0.999802 1 1 0.999802
0.999764 1 1 0.999764
0.999669 1 1 0.999669
0.999732 1 1 0.999732
0.999781 1 1 0.999781
0.999706 1 1 0.999706
0.999772 1 1 0.999772
0.999748 1 1 0.999748
0.999726 1 1 0.999726
0.99997 1 1 0.99997
0.999777 1 1 0.999777
0.999855 1 1 0.999855
0.999625 1 1 0.999625
0.999608 1 1 0.999608
0.999701 1 1 0.999701
0.999772 1 1 0.999772
0.999701 1 1 0.999701
0.999637 1 1 0.999637
0.999787 1 1 0.999787
0.999727 1 1 0.999727
0.999985 1 1 0.999985
0.999887 1 1 0.999887
0.999744 1 1 0.999744
0.999706 1 1 0.999706
0.999707 1 1 0.999707
0.999786 1 1 0.999786
0.999639 1 1 0.999639
0.999624 1 1 0.999624
0.999758 1 0.999974 0.999784
0.999796 1 1 0.999796
0.999732 1 1 0.999732
0.999902 1 1.00028 0.999625
0.99965 1 1 0.99965
0.999997 1 1 0.999997
0.999925 1 1 0.999925
0.999891 1 1 0.999891
0.999793 1 1 0.999793
0.999718 1 1 0.999718
0.999666 1 1 0.999666
0.999722 1 1 0.999722
0.999678 1 1 0.999678
0.999867 1 1 0.999867
0.999784 1 1 0.999784
0.999761 1 1 0.999761
0.999751 1 1 0.999751
0.999759 1 1 0.999759
0.999741 1 1 0.999741
0.999694 1 1 0.999694
0.999739 1 1 0.999739
0.999683 1 1 0.999683
0.999615 1 1 0.999615
0.999779 1 1 0.999779
0.999728 1 1 0.999728
0.999715 1 1 0.999715
0.999715 1 1 0.999715
0.999765 1 1 0.999765
0.99975 1 1 0.99975
0.999632 1 1 0.999632
0.999722 1 1.00012 0.999598
0.999735 1 1 0.999735
0.999719 1 1 0.999719
0.999692 1 1 0.999692
0.999666 1 1 0.999666
0.99978 1 1 0.99978
0.999609 1 1 0.999609
0.999994 1 1.00043 0.99956
0.999799 1 1 0.999799
0.999745 1 1 0.999745
0.999706 1 1 0.999706
0.999904 1 1 0.999904
0.999814 1 1 0.999814
0.999745 1 1 0.999745
0.999907 1 1 0.999907
0.999811 1 1 0.999811
0.999708 1 1 0.999708
0.999756 1 1 0.999756
0.999681 1 1 0.999681
0.999701 1 1 0.999701
0.99976 1 1 0.99976
0.99982 1 1 0.99982
0.999907 1 1 0.999907
0.999992 1 1 0.999992
0.999993 1 1 0.999993
1 1 1 1
0.999993 1 1 0.999993
1 1 1 1
1 1 1 1
1 1 1 1
1 1 1 1
1 1 1 1
0.999999 1 1 0.999999
1 1 1 1
1 1 1 1
1 1 1 1
1 1 1 1
1 1 1 1
1 1 1 1
0.999749 1 1 0.999749
0.999675 1 1 0.999675
0.999651 1 1 0.999651
0.99965 1 1 0.99965
0.999659 1 1 0.999659
0.999657 1 1 0.999657
0.999727 1 1 0.999727
0.999668 1 1 0.999668
0.999676 1 1 0.999676
0.999755 1 1 0.999755
0.999631 1 1 0.999631
0.999606 1 1 0.999606
0.999694 1 1 0.999694
0.999772 1 1 0.999772
0.999709 1 1 0.999709
0.999642 1 1 0.999642
0.999792 1 1 0.999792
0.999726 1 1 0.999726
0.999744 1 1 0.999744
0.999708 1 1 0.999708
0.999712 1 1 0.999712
0.999992 1 1 0.999992
0.999887 1 1 0.999887
0.999781 1 1 0.999781
0.999636 1 1 0.999636
0.999996 1 1 0.999996
0.99992 1 1 0.99992
0.999626 1 1 0.999626
0.99977 1 1 0.99977
0.999735 1 1 0.999735
0.999642 1 1 0.999642
0.999711 1 1.00008 0.999628
0.999793 1 1 0.999793
0.999905 1 1 0.999905
0.999793 1 1 0.999793
0.999724 1 1 0.999724
0.999686 1 1 0.999686
0.999658 1 1 0.999658
0.999719 1 1 0.999719
0.999625 1 1 0.999625
0.999698 1 1 0.999698
0.999522 1 0.99966 0.999862
0.99969 1 1 0.99969
0.999701 1 1 0.999701
1.00042 1 1.00084 0.999588
0.999924 1 1 0.999924
0.999916 1 1 0.999916
0.999853 1 1 0.999853
0.999797 1 1 0.999797
0.999733 1 1 0.999733
0.999657 1 1 0.999657
0.999623 1 1 0.999623
0.999685 1 1 0.999685
0.999778 1 1 0.999778
0.999734 1 1 0.999734
0.999767 1 1 0.999767
0.999746 1 1 0.999746
0.999719 1 1 0.999719
0.99972 1 1 0.99972
0.99964 1 1 0.99964
0.999604 1 1.00001 0.999595
0.999734 1 1 0.999734
0.999737 1 1 0.999737
0.999691 1 1 0.999691
0.999673 1 1.00002 0.999657
0.999776 1 1 0.999776
0.99961 1 1 0.99961
0.999967 1 1.00041 0.999557
0.999693 1 1 0.999693
0.999703 1.00041 0.999546 0.999751
0.999664 1 1 0.999664
0.999983 1 1.00039 0.99959
0.99961 1 1 0.99961
1.00044 1 1.00092 0.999525
0.989183 1.00465 0.98505 0.999546
0.999746 1 1 0.999746
0.999706 1 1 0.999706
0.999679 1 1 0.999679
0.999907 1 1 0.999907
0.999811 1 1 0.999811
0.999763 1 1 0.999763
0.999703 1 1 0.999703
0.999907 1 1 0.999907
0.999815 1 1 0.999815
0.99968 1 1 0.99968
0.99976 1 1 0.99976
0.999708 1 1 0.999708
0.999661 1 1 0.999661
0.999714 1 1 0.999714
0.999762 1 1 0.999762
0.999807 1 1 0.999807
0.999892 1 1 0.999892
0.999827 1 1 0.999827
0.999891 1 1 0.999891
0.999992 1 1 0.999992
0.999992 1 1 0.999992
1 1 1 1
0.999992 1 1 0.999992
1 1 1 1
1 1 1 1
1 1 1 1
1 1 1 1
1 1 1 1
1 1 1 1
0.999999 1 1 0.999999
1 1 1 1
1 1 1 1
1 1 1 1
1 1 1 1
1 1 1 1
1 1 1 1
0.999739 1 1 0.999739
0.999651 1 1 0.999651
0.999665 1 1 0.999665
0.999668 1 1 0.999668
0.99968 1 1 0.99968
0.999763 1 1 0.999763
0.999691 1 1 0.999691
0.996149 1.00103 0.995308 0.999819
0.999556 1 0.999705 0.999851
0.999942 1 1 0.999942
0.999633 1 1 0.999633
0.999628 1 1 0.999628
0.999757 1 1 0.999757
0.999739 1 1 0.999739
0.999634 1 1 0.999634
0.999631 1 1 0.999631
0.999791 1 1 0.999791
0.999726 1 1 0.999726
0.999693 1 1 0.999693
0.99965 1 1 0.99965
0.999995 1 1 0.999995
0.999721 1 1 0.999721
0.999919 1 1 0.999919
0.999792 1 1 0.999792
0.999915 1 1 0.999915
0.999617 1 1 0.999617
0.99993 1 1 0.99993
0.999916 1 1 0.999916
0.999842 1 1 0.999842
0.9997 1 1 0.9997
0.999421 1 0.999578 0.999843
0.999704 1 1 0.999704
1.00027 1 1.00069 0.999585
0.999693 1 1 0.999693
0.999804 1 1 0.999804
0.99973 1 1 0.99973
0.999683 1 1 0.999683
0.999665 1 1.00003 0.99963
0.999663 1 1 0.999663
0.99965 1 1.00004 0.999605
0.997304 1 0.997484 0.999819
0.99954 1 0.999786 0.999754
1.00015 1 1.00056 0.999599
1.0003 1 1.00064 0.999656
0.999843 1 1 0.999843
0.999816 1 1 0.999816
0.999782 1 1 0.999782
0.999733 1 1 0.999733
0.999682 1 1 0.999682
0.999621 1 1 0.999621
1.00121 1 1.0016 0.999609
0.999734 1 1 0.999734
0.999691 1 1 0.999691
0.999754 1 1 0.999754
0.999772 1 1 0.999772
0.999611 1 1 0.999611
0.999648 1 1 0.999648
0.999862 1 1.00031 0.999554
0.999697 1 1 0.999697
0.999822 1.0004 0.999663 0.99976
0.999664 1 1 0.999664
0.999835 1 1.00025 0.999589
0.999687 1.00006 1 0.999624
1.00105 1 1.00153 0.999523
0.993686 1.00725 0.986952 0.999581
0.999668 1 1 0.999668
1.00059 1.00101 1 0.999578
0.999634 1 1 0.999634
1.00235 1 1.00281 0.999542
1.00036 1 1.00085 0.999512
0.962248 0.963844 1.00004 0.998304
0.990065 1.00115 0.989351 0.999569
0.985341 1.0085 0.977498 0.99953