# vtk DataFile Version 2.0
Wound Healing Simulation
ASCII
DATASET UNSTRUCTURED_GRID
POINTS 3012 float
69.9759 18.75 4
67.2507 60.3285 4
69.976 18.75 2
73.0099 25.446 4
71.1327 20.9142 4
68.6801 16.6661 4
67.8277 19.9244 3.98792
67.2507 60.3286 2
71.1327 54.0858 4
68.6801 58.3339 4
65.6939 62.2254 4
65.3141 59.0043 3.98907
74.6784 42.3946 4
73.7221 47.2057 4
69.9759 18.75 0
73.0099 25.446 2
68.6801 16.6661 2
71.1327 20.9142 2
67.8282 19.9254 2
74.6792 32.6053 4
73.7222 27.7943 4
72.1454 23.1494 4
70.6159 26.2226 3.98653
68.888 21.9579 3.98761
67.2507 14.6715 4
66.6391 17.9689 3.98851
65.8036 21.0209 3.98307
67.2507 60.3285 0
71.1327 54.0858 2
68.6801 58.3339 2
65.694 62.2255 2
65.3144 59.0041 2
72.1454 51.8506 4
69.9759 56.25 4
68.8389 53.113 3.98737
64.0165 64.0165 4
66.6129 57.1362 3.98871
63.8874 60.7691 3.99032
63.5057 57.7793 3.98453
60.3285 67.2507 4
74.6792 42.3947 2
73.7222 47.2057 2
74.9194 39.9526 4
74.2788 44.8158 4
72.1693 42.0852 3.98512
73.0099 49.554 4
71.251 46.5969 3.98649
73.0099 25.446 0
71.1327 20.9142 0
68.6801 16.6661 0
67.8277 19.9244 0.0120836
74.6792 32.6053 2
73.7222 27.7943 2
67.2508 14.6715 2
72.1455 23.1494 2
70.616 26.2234 2
66.6396 17.9694 2
68.8884 21.9593 2
65.8038 21.0202 2
74.9197 35.0474 4
74.2794 30.1841 4
72.1858 32.9434 3.98531
71.2797 28.4326 3.98623
69.8177 24.0608 3.98717
68.3514 26.9518 3.979
66.7688 22.931 3.98197
65.694 12.7746 4
65.3255 16.0998 3.98951
64.7199 19.188 3.98416
63.8972 22.0275 3.98025
71.1327 54.0858 0
65.6939 62.2254 0
68.6801 58.3339 0
65.3141 59.0043 0.0109311
72.1455 51.8506 2
69.9759 56.25 2
68.8391 53.1118 2
64.0165 64.0165 2
66.6133 57.1356 2
63.8876 60.769 2
63.5057 57.78 2
62.2254 65.694 4
58.8946 65.4162 3.99264
69.7713 50.9877 3.98694
67.7862 55.1687 3.98815
66.6562 52.2114 3.98168
62.3374 62.4302 3.99151
64.6673 56.0378 3.98458
62.2067 59.4128 3.98487
61.8316 56.6927 3.98219
58.3339 68.6801 4
60.3285 67.2508 2
73.7221 47.2057 0
74.6784 42.3946 0
74.9197 39.9526 2
74.2794 44.8159 2
72.1693 42.0857 2
73.0099 49.554 2
71.251 46.5969 2
75 37.5 4
72.4061 39.802 3.98414
71.784 44.3522 3.98601
69.8075 41.7891 3.97785
70.5772 48.812 3.98676
68.9171 46.0143 3.97872
74.6792 32.6053 0
73.7222 27.7943 0
67.2507 14.6715 0
72.1454 23.1494 0
70.6159 26.2226 0.0134731
68.888 21.9579 0.012385
66.6391 17.9689 0.0114933
65.8036 21.0209 0.0169291
74.9197 35.0474 2
74.2794 30.1841 2
72.1858 32.9434 2
71.2797 28.433 2
65.694 12.7745 2
65.3258 16.0997 2
69.8179 24.062 2
68.3514 26.9518 2
64.7203 19.1871 2
66.7689 22.9305 2
63.8975 22.0267 2
72.4139 35.2241 3.98418
71.8052 30.6768 3.98605
69.8432 33.2687 3.97795
68.9703 29.0388 3.97852
67.6168 24.9113 3.98045
66.2012 27.6332 3.97606
64.0165 10.9835 4
64.7663 23.8248 3.97914
63.8914 14.3237 3.99056
63.5183 17.4381 3.98529
62.9168 20.3098 3.98121
62.1059 22.9324 3.97879
60.6847 11.0951 3.99196
57.6131 11.4397 3.98706
72.1454 51.8506 0
69.9759 56.25 0
68.8389 53.113 0.0126291
64.0165 64.0165 0
63.8874 60.7691 0.00967739
66.6129 57.1362 0.0112922
63.5057 57.7793 0.0154667
62.2255 65.694 2
58.8948 65.4163 2
69.7714 50.9867 2
67.7866 55.1677 2
66.6561 52.2119 2
62.3376 62.43 2
64.6674 56.0385 2
62.2066 59.4133 2
61.8316 56.6934 2
60.6695 63.9793 3.99213
57.0251 66.7369 3.99316
57.5586 63.6975 3.98747
67.5135 50.1775 3.98021
65.709 54.1775 3.98341
64.548 51.3905 3.9784
60.7756 60.9457 3.9857
62.8305 55.078 3.98242
60.6647 58.1714 3.98221
60.3389 55.8001 3.98122
56.25 69.9759 4
58.3339 68.6801 2
60.3285 67.2507 0
58.9217 9.65338 3.99246
62.2254 9.30607 4
73.0099 49.554 0
74.2788 44.8158 0
71.251 46.5969 0.0135088
72.1693 42.0852 0.0148762
74.9194 39.9526 0
75 37.5 2
72.4061 39.8024 2
71.7839 44.3525 2
69.8076 41.7892 2
70.5772 48.8115 2
68.917 46.0144 2
72.4893 37.5119 3.9836
70.0434 39.6569 3.97648
69.4346 43.9069 3.97855
67.6028 41.4979 3.97481
68.2713 48.1071 3.97931
66.7171 45.441 3.97596
74.9197 35.0474 0
74.2794 30.1841 0
72.1858 32.9434 0.0146893
71.2797 28.4326 0.0137715
65.694 12.7746 0
65.3255 16.0998 0.01049
69.8177 24.0608 0.0128304
68.3514 26.9518 0.0209996
66.7688 22.931 0.0180292
64.7199 19.188 0.0158363
63.8972 22.0275 0.0197454
72.414 35.2241 2
71.8052 30.6769 2
69.8434 33.2688 2
68.9703 29.0388 2
64.0165 10.9835 2
63.8916 14.3236 2
63.5186 17.4373 2
67.6168 24.9111 2
66.2012 27.6328 2
62.9172 20.309 2
64.7664 23.8241 2
62.1062 22.9317 2
60.6849 11.095 2
57.6131 11.439 2
70.0601 35.3921 3.9768
69.471 31.1499 3.97851
67.6605 33.5903 3.97486
66.7783 29.6218 3.97548
65.5323 25.6963 3.97743
64.1545 28.2518 3.97512
62.3426 12.652 3.99135
62.8691 24.6291 3.97786
62.2023 15.7757 3.9856
61.8219 18.6722 3.98253
61.2301 21.3282 3.97931
60.4409 23.714 3.97836
59.2475 12.7708 3.9859
55.8749 10.2263 3.98846
56.4065 13.102 3.98397
69.7713 50.9877 0.0130595
62.2254 65.694 0
58.8946 65.4162 0.0073562
67.7862 55.1687 0.0118476
66.6562 52.2114 0.0183152
62.3374 62.4302 0.00848862
62.2067 59.4128 0.015125
64.6673 56.0378 0.0154234
61.8316 56.6927 0.0178073
60.6697 63.9793 2
57.0253 66.737 2
57.5586 63.698 2
67.5133 50.1777 2
65.7091 54.1782 2
64.5479 51.3913 2
60.7755 60.9464 2
62.8306 55.0789 2
60.6646 58.1721 2
60.3389 55.8007 2
55.0705 67.9338 3.99344
59.2208 62.373 3.98629
55.8048 64.9147 3.98878
56.3285 62.0985 3.98444
65.3409 49.4115 3.97697
63.7171 53.3002 3.98056
62.4549 50.66 3.97676
59.3374 59.5682 3.98357
61.0902 54.3221 3.9815
59.2973 57.0271 3.98035
59.2545 55.1988 3.98161
48.1029 68.5818 3.99025
50.9483 69.9331 3.99386
54.0858 71.1327 4
56.25 69.976 2
58.3339 68.6801 0
57.0588 8.33328 3.99297
60.3285 7.74928 4
58.9219 9.6533 2
62.2255 9.30602 2
70.5772 48.812 0.0132431
71.784 44.3522 0.0139932
68.9171 46.0143 0.0212775
69.8075 41.7891 0.0221502
72.4061 39.802 0.0158574
75 37.5 0
72.4893 37.5122 2
70.0436 39.657 2
69.4347 43.907 2
67.603 41.4981 2
68.2712 48.1072 2
66.7171 45.4414 2
70.1309 37.5213 3.97589
67.838 39.5122 3.97346
67.2303 43.4707 3.97565
65.5631 41.2114 3.97392
66.0769 47.4199 3.97648
64.6616 44.8514 3.97508
72.4139 35.2241 0.0158221
71.8052 30.6768 0.0139529
69.8432 33.2687 0.0220507
68.9703 29.0388 0.0214842
64.0165 10.9835 0
63.8914 14.3237 0.00943912
63.5183 17.4381 0.0147125
67.6168 24.9113 0.0195527
66.2012 27.6332 0.0239386
64.7663 23.8248 0.0208597
62.9168 20.3098 0.0187921
62.1059 22.9324 0.0212104
60.6847 11.0951 0.00804454
57.6131 11.4397 0.0129352
70.0603 35.3922 2
69.4711 31.15 2
67.6608 33.5901 2
66.7784 29.6215 2
62.3428 12.6521 2
62.2024 15.7752 2
61.8222 18.6714 2
65.5323 25.6958 2
64.1546 28.2515 2
61.2306 21.3275 2
62.8693 24.6285 2
60.4413 23.7135 2
59.2475 12.7702 2
56.4065 13.1013 2
55.8749 10.2256 2
67.8742 35.5472 3.9739
67.2713 31.6214 3.97561
65.7043 33.9256 3.97366
64.6705 30.1891 3.9743
63.5483 26.4087 3.97608
62.2669 28.772 3.97563
60.7772 14.2152 3.9855
61.0592 25.3271 3.97741
60.6181 17.1153 3.98359
60.2329 19.8013 3.9808
59.6756 22.2427 3.978
58.9949 24.3049 3.97857
54.0379 9.12994 3.9891
57.9123 14.3206 3.98379
54.7876 12.0012 3.98509
55.3142 14.6324 3.98269
67.5135 50.1775 0.0197879
57.0251 66.7369 0.0068442
60.6695 63.9793 0.00786991
57.5586 63.6975 0.0125284
65.709 54.1775 0.0165865
64.548 51.3905 0.0216035
60.7756 60.9457 0.0142964
60.6647 58.1714 0.0177858
62.8305 55.078 0.0175814
60.3389 55.8001 0.0187764
55.0708 67.9338 2
59.2207 62.3738 2
55.8048 64.9152 2
56.3283 62.0991 2
65.3408 49.4121 2
63.7171 53.3011 2
62.4549 50.6608 2
59.3374 59.569 2
61.0903 54.3229 2
59.2973 57.0277 2
59.2545 55.1994 2
53.0424 69.0015 3.99367
53.9669 66.0167 3.98941
57.8833 60.8799 3.98398
54.6845 63.2145 3.98552
55.2136 60.6266 3.9829
63.2058 48.6668 3.97553
61.7556 52.5859 3.97912
60.289 50.03 3.97583
58.0237 58.2745 3.98164
59.3418 53.9624 3.98069
58.1367 55.8289 3.97855
50.1095 67.8598 3.99002
47.4635 66.5862 3.98798
46.0567 69.1614 3.99049
48.103 68.5822 2
48.8025 70.7244 3.99404
50.9485 69.9332 2
51.8506 72.1454 4
54.0858 71.1327 2
56.25 69.9759 0
55.103 7.13788 3.99322
58.3339 6.31992 4
57.059 8.33312 2
60.3286 7.74926 2
58.9217 9.65338 0.0075365
62.2254 9.30607 0
68.2713 48.1071 0.0206925
69.4346 43.9069 0.0214537
66.7171 45.441 0.0240393
67.6028 41.4979 0.0251871
70.0434 39.6569 0.02352
72.4893 37.5119 0.0163955
70.1311 37.5214 2
67.8383 39.5124 2
67.2304 43.471 2
65.5634 41.2117 2
66.0768 47.4204 2
64.6617 44.8519 2
67.9334 37.5218 3.97258
65.7925 39.3709 3.97258
65.1847 43.0277 3.97476
63.7645 40.9324 3.97357
63.976 46.7209 3.97544
62.8184 44.2215 3.97579
70.0601 35.3921 0.0232029
69.471 31.1499 0.0214909
67.6605 33.5903 0.0251361
66.7783 29.6218 0.0245197
62.3426 12.652 0.00865339
62.2023 15.7757 0.0144036
61.8219 18.6722 0.0174685
65.5323 25.6963 0.0225684
64.1545 28.2518 0.0248759
62.8691 24.6291 0.0221428
61.2301 21.3282 0.0206916
60.4409 23.714 0.0216357
59.2475 12.7708 0.0141022
56.4065 13.102 0.0160281
55.8749 10.2263 0.011543
67.8745 35.5471 2
67.2715 31.6212 2
65.7046 33.9253 2
64.6707 30.1888 2
60.7772 14.2146 2
60.6183 17.1145 2
60.2334 19.8004 2
63.5484 26.4082 2
62.267 28.7716 2
59.6761 22.2421 2
61.0595 25.3266 2
58.9953 24.3044 2
57.9122 14.3199 2
55.3142 14.6317 2
54.0378 9.12933 2
54.7876 12.0004 2
65.8814 35.666 3.97286
65.1939 32.1515 3.97439
64.2918 34.2479 3.97369
62.604 30.6309 3.97406
61.6628 27.0646 3.97542
60.8612 29.1325 3.97735
59.3137 15.6573 3.98387
59.3469 25.7835 3.97886
59.1305 18.3406 3.98257
58.7519 20.8369 3.97896
58.3004 23.0749 3.97675
57.9854 24.6484 3.97909
52.1124 8.14868 3.98948
53.0583 11.0078 3.9861
56.679 15.7287 3.98299
53.8106 13.6674 3.98338
54.3785 15.9833 3.98246
55.0705 67.9338 0.00655798
65.3409 49.4115 0.0230302
55.8048 64.9147 0.0112185
59.2208 62.373 0.0137103
56.3285 62.0985 0.0155634
63.7171 53.3002 0.0194436
62.4549 50.66 0.0232396
59.3374 59.5682 0.0164276
59.2973 57.0271 0.0196502
61.0902 54.3221 0.018497
59.2545 55.1988 0.0183855
53.0426 69.0015 2
53.9669 66.0171 2
57.8832 60.8805 2
54.6844 63.215 2
55.2135 60.6273 2
63.2057 48.6674 2
61.7557 52.5867 2
60.289 50.0308 2
58.0237 58.2752 2
59.3418 53.963 2
58.1366 55.8295 2
52.0705 67.0029 3.98978
52.9535 64.2245 3.98652
56.6519 59.5007 3.98278
[...]
POINT_DATA 3012
SCALARS rho_c_phif_kappa float 4
LOOKUP_TABLE default
1000 0 1.00053 0.243849
1000 0 1.00049 0.244034
1000 0 1.00053 0.243693
1000 0 1.00053 0.243894
1000 0 1.00053 0.243855
1000 0 1.00053 0.243813
1004.08 4.71105e-09 1.00056 0.243758
1000 0 1.00049 0.244015
1000 0 1.00049 0.243892
1000 0 1.00049 0.243918
1000 0 1.00053 0.24362
1004.08 4.66146e-09 1.00058 0.243586
1000 0 1.00053 0.243941
1000 0 1.00053 0.243776
1000 0 1.00053 0.243545
1000 0 1.00053 0.243788
1000 0 1.00053 0.243663
1000 0 1.00053 0.243715
1004.08 4.7155e-09 1.00056 0.243832
1000 0 1.00049 0.244081
1000 0 1.00053 0.243947
1000 0 1.00053 0.243863
1004.06 4.73656e-09 1.00056 0.243869
1004.07 4.72233e-09 1.00056 0.243817
1000 0 1.00053 0.243758
1004.09 4.69935e-09 1.00056 0.243692
1003.61 4.23743e-09 1.00058 0.24389
1000 0 1.00049 0.243997
1000 0 1.00051 0.243789
1000 0 1.00051 0.243776
1000 0 1.00049 0.244029
1004.07 4.66511e-09 1.00058 0.243594
1000 0 1.00053 0.243669
1000 0 1.00053 0.243635
1004.07 4.72479e-09 1.00056 0.243855
1000 0 1.00049 0.244005
1004.07 4.68219e-09 1.00056 0.243772
1004.09 4.64826e-09 1.00058 0.243676
1003.62 4.26082e-09 1.00058 0.243881
1000 0 1.00049 0.244112
1000 0 1.00049 0.244101
1000 0 1.00051 0.243909
1000 0 1.00049 0.244143
1000 0 1.00053 0.243868
1004.04 4.74242e-09 1.00058 0.243934
1000 0 1.00049 0.243923
1004.06 4.74859e-09 1.00056 0.243944
1000 0 1.00053 0.243688
1000 0 1.00053 0.243579
1000 0 1.00053 0.243512
1004.08 4.71105e-09 1.00056 0.243902
1000 0 1.00051 0.244083
1000 0 1.00053 0.243863
1000 0 1.00053 0.243631
1000 0 1.00053 0.24374
1004.05 4.7407e-09 1.00056 0.243913
1004.08 4.70332e-09 1.00056 0.243762
1004.07 4.72684e-09 1.00056 0.243889
1003.62 4.23602e-09 1.00058 0.24388
1000 0 1.00049 0.244117
1000 0 1.00053 0.244005
1004.04 4.73688e-09 1.00056 0.24394
1004.05 4.73887e-09 1.00056 0.243892
1004.07 4.73156e-09 1.00056 0.243848
1003.61 4.21277e-09 1.00058 0.243872
1003.61 4.22873e-09 1.00058 0.243912
1000 0 1.00053 0.243733
1004.1 4.6878e-09 1.00056 0.243669
1003.62 4.24631e-09 1.00058 0.243844
1003.61 4.2165e-09 1.00058 0.243607
1000 0 1.00049 0.243987
1000 0 1.00049 0.244018
1000 0 1.00049 0.243992
1004.08 4.66146e-09 1.00058 0.243603
1000 0 1.00049 0.243959
1000 0 1.00049 0.244004
1004.07 4.72925e-09 1.00058 0.243744
1000 0 1.00051 0.243812
1004.07 4.68625e-09 1.00058 0.243622
1004.09 4.65134e-09 1.00057 0.243721
1003.62 4.25947e-09 1.00058 0.243883
1000 0 1.00049 0.244084
1004.15 4.64572e-09 1.00058 0.24369
1004.07 4.73789e-09 1.00058 0.243886
1004.07 4.70548e-09 1.00058 0.243783
1003.61 4.22591e-09 1.00058 0.243863
1004.11 4.64062e-09 1.00056 0.243787
1003.62 4.25228e-09 1.00058 0.243895
1003.62 4.26531e-09 1.00058 0.243865
1003.62 4.22314e-09 1.00058 0.243784
1000 0 1.00049 0.24414
1000 0 1.00049 0.244111
1000 0 1.00049 0.243993
1000 0 1.00049 0.244085
1000 0 1.00049 0.244132
1000 0 1.00051 0.243972
1004.03 4.74678e-09 1.00057 0.243917
1000 0 1.00051 0.243844
1004.05 4.75235e-09 1.00057 0.243897
1000 0 1.00049 0.244147
1004.04 4.73597e-09 1.00058 0.243884
1004.05 4.7469e-09 1.00056 0.243944
1003.61 4.20622e-09 1.00058 0.243674
1004.07 4.74677e-09 1.00056 0.243874
1003.6 4.20722e-09 1.00058 0.243842
1000 0 1.00053 0.243938
1000 0 1.00053 0.243784
1000 0 1.00053 0.243498
1000 0 1.00053 0.24362
1004.06 4.73656e-09 1.00056 0.243952
1004.07 4.72233e-09 1.00056 0.243958
1004.09 4.69935e-09 1.00056 0.243832
1003.61 4.23743e-09 1.00058 0.243869
1000 0 1.00049 0.244118
1000 0 1.00053 0.243938
1004.03 4.74144e-09 1.00057 0.243914
1004.04 4.74289e-09 1.00056 0.243924
1000 0 1.00051 0.243792
1004.09 4.69095e-09 1.00056 0.243739
1004.07 4.73589e-09 1.00056 0.243909
1003.61 4.2114e-09 1.00058 0.243845
1003.62 4.24501e-09 1.00058 0.243837
1003.61 4.22724e-09 1.00058 0.243907
1003.61 4.21688e-09 1.00058 0.243606
1004.03 4.73402e-09 1.00058 0.243935
1004.05 4.73902e-09 1.00056 0.243905
1003.61 4.20804e-09 1.00058 0.243716
1003.6 4.2076e-09 1.00058 0.243809
1003.61 4.22032e-09 1.00058 0.243898
1003.6 4.20209e-09 1.00058 0.243509
1000 0 1.00049 0.244034
1003.61 4.21224e-09 1.00058 0.243583
1004.11 4.67651e-09 1.00058 0.243595
1003.62 4.25277e-09 1.00058 0.243847
1003.62 4.22188e-09 1.00058 0.243622
1003.62 4.22877e-09 1.00058 0.243285
1004.14 4.66577e-09 1.00058 0.243699
1003.59 4.25402e-09 1.00058 0.244079
1000 0 1.00049 0.243966
1000 0 1.00049 0.244
1004.07 4.72479e-09 1.00058 0.243747
1000 0 1.00049 0.244048
1004.09 4.64826e-09 1.00058 0.243613
1004.07 4.68219e-09 1.00058 0.243629
1003.62 4.26082e-09 1.00058 0.243886
1000 0 1.00049 0.244082
1004.15 4.64778e-09 1.00058 0.243684
1004.07 4.74209e-09 1.00057 0.243891
1004.07 4.70981e-09 1.00057 0.243794
1003.61 4.22455e-09 1.00058 0.243885
1004.1 4.64322e-09 1.00058 0.24364
1003.62 4.25087e-09 1.00058 0.243906
1003.62 4.26421e-09 1.00058 0.243869
1003.62 4.22338e-09 1.00058 0.243781
1004.13 4.64111e-09 1.00058 0.243672
1004.17 4.65151e-09 1.00059 0.243682
1003.59 4.25973e-09 1.00058 0.244034
1003.61 4.21887e-09 1.00058 0.243891
1003.62 4.23882e-09 1.00058 0.243862
1003.61 4.2147e-09 1.00058 0.243549
1003.61 4.26521e-09 1.00058 0.243945
1003.62 4.22167e-09 1.00058 0.243735
1003.62 4.22672e-09 1.00058 0.243748
1003.63 4.24119e-09 1.00058 0.2435
1000 0 1.00049 0.244165
1000 0 1.00049 0.244138
1000 0 1.00049 0.244109
1004.16 4.66684e-09 1.00059 0.243685
1000 0 1.00049 0.24407
1000 0 1.00049 0.243967
1000 0 1.00049 0.244035
1004.06 4.74859e-09 1.00058 0.243868
1004.04 4.74242e-09 1.00058 0.243904
1000 0 1.00049 0.244133
1000 0 1.00049 0.24415
1004.02 4.74089e-09 1.00058 0.243899
1004.04 4.75084e-09 1.00057 0.243902
1003.61 4.20485e-09 1.00058 0.243677
1004.06 4.75057e-09 1.00058 0.243825
1003.61 4.20594e-09 1.00058 0.243837
1004.03 4.73149e-09 1.00058 0.243918
1003.61 4.20545e-09 1.00058 0.243609
1003.6 4.20664e-09 1.00058 0.243763
1003.59 4.19696e-09 1.00057 0.243425
1003.6 4.2091e-09 1.00058 0.243888
1003.6 4.20245e-09 1.00058 0.243523
1000 0 1.00049 0.244132
1000 0 1.00053 0.243877
1004.04 4.73688e-09 1.00058 0.243961
1004.05 4.73887e-09 1.00056 0.243955
1000 0 1.00049 0.243957
1004.1 4.6878e-09 1.00056 0.243811
1004.07 4.73156e-09 1.00056 0.243967
1003.61 4.21277e-09 1.00058 0.243818
1003.61 4.22873e-09 1.00058 0.243905
1003.62 4.24631e-09 1.00058 0.24383
1003.61 4.2165e-09 1.00058 0.243605
1004.02 4.73919e-09 1.00058 0.243917
1004.04 4.74311e-09 1.00056 0.24394
1003.61 4.20663e-09 1.00058 0.243712
1003.61 4.20628e-09 1.00058 0.243809
1000 0 1.00049 0.244038
1004.11 4.67919e-09 1.00057 0.243696
1003.62 4.25156e-09 1.00058 0.243851
1003.61 4.21887e-09 1.00058 0.243882
1003.6 4.20244e-09 1.00058 0.243482
1003.62 4.22226e-09 1.00058 0.243611
1003.61 4.21259e-09 1.00058 0.243592
1003.62 4.22886e-09 1.00058 0.243291
1004.14 4.66799e-09 1.00058 0.243689
1003.59 4.25297e-09 1.00058 0.244055
1003.61 4.2073e-09 1.00058 0.243641
1003.6 4.20727e-09 1.00058 0.243774
1003.59 4.19473e-09 1.00057 0.243461
1003.59 4.19773e-09 1.00057 0.243449
1003.6 4.20809e-09 1.00058 0.243535
1003.61 4.21156e-09 1.00058 0.243216
1004.13 4.66849e-09 1.00058 0.243661
1003.62 4.22363e-09 1.00058 0.243255
1003.61 4.25568e-09 1.00058 0.243927
1003.62 4.2265e-09 1.00058 0.243707
1003.63 4.23492e-09 1.00058 0.243306
1003.61 4.22058e-09 1.00058 0.242936
1003.6 4.25536e-09 1.00058 0.244048
1003.58 4.25141e-09 1.00058 0.244105
1003.63 4.22626e-09 1.00058 0.243982
1004.07 4.73789e-09 1.00058 0.24381
1000 0 1.00049 0.244079
1004.15 4.64572e-09 1.00058 0.243674
1004.07 4.70548e-09 1.00058 0.243677
1003.61 4.22591e-09 1.00058 0.243905
1004.11 4.64062e-09 1.00058 0.243658
1003.62 4.26531e-09 1.00058 0.243873
1003.62 4.25228e-09 1.00058 0.243917
1003.62 4.22314e-09 1.00058 0.243778
1004.12 4.64332e-09 1.00058 0.243679
1004.17 4.65341e-09 1.00059 0.243667
1003.59 4.25858e-09 1.00058 0.244051
1003.61 4.21754e-09 1.00058 0.243899
1003.62 4.23743e-09 1.00058 0.243884
1003.61 4.21506e-09 1.00058 0.243549
1003.61 4.2641e-09 1.00058 0.243949
1003.62 4.22182e-09 1.00058 0.243746
1003.62 4.22713e-09 1.00058 0.24375
1003.63 4.24122e-09 1.00058 0.243477
1004.2 4.65848e-09 1.00059 0.243664
1003.6 4.26224e-09 1.00058 0.244019
1003.58 4.25703e-09 1.00058 0.244052
1003.63 4.22695e-09 1.00058 0.244013
1003.6 4.19718e-09 1.00058 0.243556
1003.61 4.22469e-09 1.00058 0.243608
1003.61 4.21433e-09 1.00058 0.243183
1003.62 4.22849e-09 1.00058 0.243859
1003.63 4.24052e-09 1.00058 0.243378
1003.63 4.24614e-09 1.00058 0.24341
1003.63 4.23671e-09 1.00058 0.243217
1003.55 4.24716e-09 1.00058 0.244011
1004.24 4.6731e-09 1.00059 0.243634
1000 0 1.00048 0.244189
1000 0 1.00049 0.244165
1000 0 1.00049 0.244137
1004.19 4.67261e-09 1.00059 0.243653
1000 0 1.00049 0.244105
1004.16 4.66883e-09 1.00059 0.243696
1000 0 1.00049 0.244071
1004.07 4.74677e-09 1.00058 0.243848
1004.05 4.7469e-09 1.00058 0.243886
1003.6 4.20722e-09 1.00058 0.243833
1003.61 4.20622e-09 1.00058 0.243681
1004.04 4.73597e-09 1.00058 0.243913
1000 0 1.00049 0.244153
1004.02 4.73695e-09 1.00058 0.243915
1003.61 4.20396e-09 1.00058 0.243611
1003.61 4.20525e-09 1.00058 0.243763
1003.59 4.19735e-09 1.00057 0.243422
1003.6 4.20786e-09 1.00058 0.243886
1003.6 4.20282e-09 1.00058 0.243522
1003.61 4.20796e-09 1.00058 0.243601
1003.59 4.19356e-09 1.00057 0.243369
1003.59 4.20144e-09 1.00058 0.243481
1003.6 4.2003e-09 1.00057 0.24322
1003.6 4.20785e-09 1.00058 0.243551
1003.6 4.2046e-09 1.00057 0.24323
1004.03 4.73402e-09 1.00058 0.243898
1004.05 4.73902e-09 1.00056 0.243973
1003.61 4.20804e-09 1.00058 0.243705
1003.6 4.2076e-09 1.00058 0.243809
1000 0 1.00049 0.244045
1004.11 4.67651e-09 1.00056 0.243743
1003.62 4.25277e-09 1.00058 0.243856
1003.61 4.22032e-09 1.00058 0.243868
1003.6 4.20209e-09 1.00058 0.243454
1003.61 4.21224e-09 1.00058 0.243599
1003.62 4.22188e-09 1.00058 0.2436
1003.62 4.22877e-09 1.00058 0.243296
1004.14 4.66577e-09 1.00058 0.243682
1003.59 4.25402e-09 1.00058 0.244033
1003.61 4.20572e-09 1.00058 0.243639
1003.61 4.20598e-09 1.00058 0.24377
1003.59 4.19509e-09 1.00057 0.243449
1003.59 4.19811e-09 1.00057 0.243463
1004.12 4.67093e-09 1.00058 0.243644
1003.61 4.25452e-09 1.00058 0.243925
1003.62 4.2268e-09 1.00058 0.243719
1003.6 4.20849e-09 1.00058 0.243541
1003.61 4.21172e-09 1.00057 0.243192
1003.63 4.23515e-09 1.00058 0.243287
1003.62 4.22372e-09 1.00058 0.243256
1003.61 4.22078e-09 1.00058 0.242924
1003.6 4.25424e-09 1.00058 0.244039
1003.63 4.22664e-09 1.00058 0.243994
1003.58 4.25033e-09 1.00058 0.244076
1003.59 4.19025e-09 1.00057 0.243409
1003.59 4.19473e-09 1.00057 0.243468
1003.6 4.20223e-09 1.00057 0.243271
1003.6 4.20499e-09 1.00057 0.243199
1003.61 4.21572e-09 1.00058 0.243185
1003.6 4.20435e-09 1.00057 0.242953
1003.6 4.2563e-09 1.00058 0.243992
1003.61 4.21446e-09 1.00058 0.242896
1003.62 4.22815e-09 1.00058 0.243876
1003.63 4.24215e-09 1.00058 0.24337
1003.62 4.22728e-09 1.00058 0.242892
1003.61 4.21676e-09 1.00058 0.242587
1003.57 4.24773e-09 1.00058 0.24412
1003.62 4.22624e-09 1.00058 0.244004
1003.63 4.22731e-09 1.00058 0.244007
1003.63 4.24546e-09 1.00058 0.243764
1003.61 4.21887e-09 1.00058 0.243907
1004.17 4.65151e-09 1.00059 0.243652
1004.13 4.64111e-09 1.00058 0.243687
1003.59 4.25973e-09 1.00058 0.244071
1003.62 4.23882e-09 1.00058 0.243906
1003.61 4.2147e-09 1.00058 0.243548
1003.61 4.26521e-09 1.00058 0.24395
1003.62 4.22672e-09 1.00058 0.243751
1003.62 4.22167e-09 1.00058 0.243758
1003.63 4.24119e-09 1.00058 0.243455
1004.19 4.66023e-09 1.00059 0.243651
1003.6 4.26108e-09 1.00058 0.244026
1003.58 4.25599e-09 1.00058 0.244072
1003.63 4.22716e-09 1.00058 0.244009
1003.6 4.1975e-09 1.00058 0.243552
1003.61 4.22506e-09 1.00058 0.243611
1003.61 4.21467e-09 1.00058 0.243181
1003.62 4.22879e-09 1.00058 0.243856
1003.63 4.24056e-09 1.00058 0.243394
1003.63 4.24647e-09 1.00058 0.243405
1003.63 4.23685e-09 1.00058 0.243247
1004.22 4.66506e-09 1.00059 0.24365
1003.57 4.25389e-09 1.00058 0.244071
1003.62 4.22714e-09 1.00058 0.243987
1003.63 4.22756e-09 1.00058 0.244058
1003.63 4.24591e-09 1.00058 0.243754
1003.61 4.24092e-09 1.00058 0.243228
1003.62 4.20454e-09 1.00058 0.243207
1003.61 4.25821e-09 1.00058 0.242755
1003.64 4.24726e-09 1.00058 0.243511
1003.62 4.21648e-09 1.00058 0.242964
1003.63 4.21913e-09 1.00058 0.24308
1003.56 4.24964e-09 1.00058 0.244043
1003.64 4.22825e-09 1.00058 0.244241
1003.54 4.24383e-09 1.00058 0.243984
1003.55 4.2463e-09 1.00058 0.244016
1004.26 4.68104e-09 1.00056 0.243772
1004.24 4.67465e-09 1.00058 0.243727
1000 0 1.00053 0.243909
1000 0 1.00049 0.244188
1000 0 1.00049 0.244164
1004.21 4.68085e-09 1.00059 0.243634
1000 0 1.00049 0.244136
1004.18 4.67424e-09 1.00059 0.243673
1000 0 1.00049 0.244106
1004.16 4.66684e-09 1.00059 0.243704
1000 0 1.00049 0.244072
1003.6 4.2091e-09 1.00058 0.243883
1003.6 4.20664e-09 1.00058 0.243763
1003.6 4.20245e-09 1.00058 0.24352
1003.59 4.19696e-09 1.00057 0.243418
1003.61 4.20545e-09 1.00058 0.243614
1004.03 4.73149e-09 1.00058 0.243908
1003.61 4.20634e-09 1.00058 0.2436
1003.59 4.19395e-09 1.00057 0.243368
1003.59 4.20174e-09 1.00058 0.243478
1003.6 4.20037e-09 1.00057 0.243208
1003.6 4.20817e-09 1.00058 0.243549
1003.6 4.20451e-09 1.00057 0.243227
1003.59 4.18353e-09 1.00057 0.243359
1003.6 4.19246e-09 1.00057 0.243213
1003.6 4.195e-09 1.00057 0.243215
1003.59 4.22084e-09 1.00057 0.243051
1003.61 4.2e-09 1.00058 0.24324
1003.6 4.21698e-09 1.00057 0.24292
1003.61 4.2073e-09 1.00058 0.24364
1003.6 4.20727e-09 1.00058 0.243764
1003.59 4.19473e-09 1.00057 0.243438
1003.59 4.19773e-09 1.00058 0.243476
1004.13 4.66849e-09 1.00058 0.243631
1003.61 4.25568e-09 1.00058 0.243922
1003.62 4.2265e-09 1.00058 0.243732
1003.6 4.20809e-09 1.00058 0.243548
1003.61 4.21156e-09 1.00057 0.243167
1003.62 4.22363e-09 1.00058 0.243258
1003.63 4.23492e-09 1.00058 0.243268
1003.61 4.22058e-09 1.00058 0.242911
1003.6 4.25536e-09 1.00058 0.24403
1003.63 4.22626e-09 1.00058 0.244004
1003.58 4.25141e-09 1.00058 0.244051
1003.59 4.19065e-09 1.00057 0.243402
1003.59 4.19494e-09 1.00057 0.243461
1003.6 4.20226e-09 1.00057 0.24326
1003.6 4.2049e-09 1.00057 0.243202
1003.6 4.25514e-09 1.00058 0.243996
1003.62 4.22835e-09 1.00058 0.243878
1003.63 4.24241e-09 1.00058 0.243382
1003.61 4.21572e-09 1.00058 0.243205
1003.6 4.20401e-09 1.00057 0.242919
1003.62 4.22762e-09 1.00058 0.242866
1003.61 4.21433e-09 1.00058 0.242909
1003.61 4.21658e-09 1.00058 0.242574
1003.62 4.22646e-09 1.00058 0.244011
1003.63 4.24566e-09 1.00058 0.243768
1003.57 4.24671e-09 1.00058 0.244101
1003.63 4.22745e-09 1.00058 0.244016
1003.6 4.21429e-09 1.00057 0.243246
1003.6 4.20643e-09 1.00057 0.243227
1003.59 4.21217e-09 1.00057 0.243151
1003.59 4.19233e-09 1.00057 0.242995
1003.6 4.21601e-09 1.00058 0.24285
1003.6 4.19075e-09 1.00057 0.242641
1003.62 4.22751e-09 1.00058 0.24397
1003.61 4.22193e-09 1.00058 0.242518
1003.63 4.24555e-09 1.00058 0.24359
1003.63 4.22488e-09 1.00058 0.242968
1003.62 4.23493e-09 1.00058 0.242488
1003.61 4.23619e-09 1.00058 0.242265
1003.56 4.24374e-09 1.00058 0.244101
1003.63 4.22816e-09 1.00058 0.244105
1003.63 4.2446e-09 1.00058 0.24383
1003.63 4.24715e-09 1.00058 0.243695
1003.63 4.24012e-09 1.00058 0.243659
1004.2 4.65848e-09 1.00059 0.243637
1003.6 4.19718e-09 1.00058 0.243546
1003.58 4.25703e-09 1.00058 0.244095
1003.6 4.26224e-09 1.00058 0.244032
1003.63 4.22695e-09 1.00058 0.244005
1003.61 4.22469e-09 1.00058 0.243614
1003.61 4.21433e-09 1.00058 0.243178
1003.62 4.22849e-09 1.00058 0.243853
1003.63 4.24614e-09 1.00058 0.243398
1003.63 4.24052e-09 1.00058 0.243408
1003.63 4.23671e-09 1.00058 0.243277
1004.22 4.66674e-09 1.00059 0.243638
1003.57 4.25289e-09 1.00058 0.244086
1003.62 4.22737e-09 1.00058 0.243982
1003.63 4.22774e-09 1.00058 0.244058
1003.63 4.24585e-09 1.00058 0.243752
1003.61 4.24089e-09 1.00058 0.243222
1003.62 4.20424e-09 1.00058 0.243202
1003.61 4.25766e-09 1.00058 0.242736
1003.64 4.24744e-09 1.00058 0.243515
1003.62 4.21622e-09 1.00058 0.243011
1003.63 4.21946e-09 1.00058 0.243086
1003.57 4.25212e-09 1.00058 0.244065
1003.63 4.22764e-09 1.00058 0.244129
1003.63 4.24607e-09 1.00058 0.243709
1003.64 4.24708e-09 1.00058 0.243774
1003.63 4.2412e-09 1.00058 0.243568
1003.6 4.23666e-09 1.00058 0.242924
1003.62 4.33555e-09 1.00058 0.242672
1003.6 4.13533e-09 1.00058 0.242166
1003.63 4.22044e-09 1.00058 0.24315
1003.63 4.33938e-09 1.00058 0.242746
1003.56 4.2488e-09 1.00058 0.244048
1003.63 4.22785e-09 1.00058 0.244209
1003.64 4.2284e-09 1.00058 0.244244
1003.63 4.24732e-09 1.00058 0.244008
1003.64 4.2289e-09 1.00058 0.244242
1003.53 4.23946e-09 1.00058 0.243967
1003.54 4.24305e-09 1.00058 0.243988
1004.27 4.69105e-09 1.00056 0.24376
1003.55 4.24716e-09 1.00058 0.244021
1004.26 4.6824e-09 1.00056 0.2438
1000 0 1.00053 0.243922
1004.24 4.6731e-09 1.00056 0.243791
1000 0 1.00051 0.244007
1000 0 1.00049 0.244188
1004.23 4.68959e-09 1.00059 0.243619
1004.21 4.68238e-09 1.00059 0.24365
1000 0 1.00049 0.244163
1000 0 1.00049 0.244137
1004.19 4.67261e-09 1.00059 0.243691
1000 0 1.00049 0.244105
1003.6 4.20785e-09 1.00058 0.243546
1003.59 4.20144e-09 1.00058 0.243476
1003.6 4.2046e-09 1.00057 0.243225
1003.6 4.2003e-09 1.00057 0.243197
1003.59 4.19356e-09 1.00057 0.243366
1003.61 4.20796e-09 1.00058 0.243598
1003.59 4.18408e-09 1.00057 0.243359
1003.6 4.19282e-09 1.00057 0.243211
1003.6 4.19518e-09 1.00057 0.243215
1003.59 4.22174e-09 1.00057 0.243036
1003.61 4.20032e-09 1.00058 0.243237
1003.6 4.21784e-09 1.00057 0.242903
1003.6 4.20801e-09 1.00057 0.243216
1003.6 4.28337e-09 1.00057 0.243131
1003.6 4.22863e-09 1.00057 0.242943
1003.59 4.11823e-09 1.00057 0.242954
1003.6 4.23826e-09 1.00057 0.24291
1003.59 4.12826e-09 1.00057 0.242644
1003.59 4.19025e-09 1.00057 0.243395
1003.59 4.19473e-09 1.00057 0.243454
1003.6 4.20223e-09 1.00057 0.243248
1003.6 4.20499e-09 1.00057 0.243205
1003.6 4.2563e-09 1.00058 0.243997
1003.62 4.22815e-09 1.00058 0.24388
1003.63 4.24215e-09 1.00058 0.243391
1003.61 4.21572e-09 1.00058 0.243226
1003.6 4.20435e-09 1.00057 0.242885
1003.61 4.21446e-09 1.00058 0.24292
1003.62 4.22728e-09 1.00058 0.242842
1003.61 4.21676e-09 1.00058 0.242556
1003.62 4.22624e-09 1.00058 0.244019
1003.63 4.24546e-09 1.00058 0.243774
1003.57 4.24773e-09 1.00058 0.244082
1003.63 4.22731e-09 1.00058 0.244025
1003.6 4.21487e-09 1.00057 0.243248
1003.6 4.20693e-09 1.00057 0.243229
1003.6 4.21346e-09 1.00057 0.243151
1003.59 4.19347e-09 1.00057 0.242996
1003.62 4.22764e-09 1.00058 0.243978
1003.63 4.24562e-09 1.00058 0.243607
1003.63 4.22542e-09 1.00058 0.242955
1003.6 4.21683e-09 1.00058 0.242881
1003.6 4.19231e-09 1.00057 0.242643
1003.62 4.23537e-09 1.00058 0.242487
1003.61 4.22317e-09 1.00058 0.242528
1003.61 4.2369e-09 1.00058 0.242282
1003.63 4.24454e-09 1.00058 0.243833
1003.63 4.24024e-09 1.00058 0.243658
1003.63 4.24724e-09 1.00058 0.243688
1003.56 4.24284e-09 1.00058 0.24409
1003.63 4.22825e-09 1.00058 0.244115
1003.59 4.1724e-09 1.00057 0.243119
1003.59 4.20255e-09 1.00057 0.243045
1003.59 4.22259e-09 1.00057 0.242694
1003.59 4.21184e-09 1.00057 0.242457
1003.63 4.24515e-09 1.00058 0.243787
1003.6 4.16485e-09 1.00058 0.241935
1003.63 4.22013e-09 1.00058 0.243247
1003.63 4.30996e-09 1.00058 0.242525
1003.61 4.16967e-09 1.00058 0.242118
1003.55 4.24107e-09 1.00058 0.244063
1003.63 4.23192e-09 1.00058 0.244189
1003.63 4.24558e-09 1.00058 0.243765
1003.63 4.24003e-09 1.00058 0.243706
1003.63 4.23663e-09 1.00058 0.243463
1003.63 4.2395e-09 1.00058 0.243596
1004.22 4.66506e-09 1.00059 0.243626
1003.57 4.25389e-09 1.00058 0.244102
1003.61 4.24092e-09 1.00058 0.243216
1003.63 4.22756e-09 1.00058 0.244057
1003.62 4.22714e-09 1.00058 0.243978
1003.63 4.24591e-09 1.00058 0.243751
1003.62 4.20454e-09 1.00058 0.243198
1003.61 4.25821e-09 1.00058 0.242719
1003.64 4.24726e-09 1.00058 0.243521
1003.63 4.21913e-09 1.00058 0.243092
1003.62 4.21648e-09 1.00058 0.243056
1003.57 4.25118e-09 1.00058 0.244075
1003.63 4.22777e-09 1.00058 0.244135
1003.63 4.24599e-09 1.00058 0.243716
1003.64 4.24705e-09 1.00058 0.243771
1003.63 4.24121e-09 1.00058 0.243557
1003.6 4.24065e-09 1.00058 0.242894
1003.62 4.33763e-09 1.00058 0.242691
1003.6 4.14047e-09 1.00058 0.242146
1003.63 4.22086e-09 1.00058 0.24314