# vtk DataFile Version 2.0
Wound Healing Simulation
ASCII
DATASET UNSTRUCTURED_GRID
POINTS 3012 float
69.9759 18.75 4
67.2507 60.3285 4
69.976 18.75 2
73.0099 25.446 4
71.1327 20.9142 4
68.6801 16.6661 4
67.8185 19.9242 3.96771
67.2507 60.3286 2
71.1327 54.0858 4
68.6801 58.3339 4
65.6939 62.2254 4
65.3041 58.9998 3.96614
74.6784 42.3946 4
73.7221 47.2057 4
69.9759 18.75 0
73.0099 25.446 2
68.6801 16.6661 2
71.1327 20.9142 2
67.819 19.9289 2
74.6792 32.6053 4
73.7222 27.7943 4
72.1454 23.1494 4
70.6102 26.2222 3.97021
68.8798 21.9569 3.96845
67.2507 14.6715 4
66.629 17.9704 3.96658
65.6689 21.0723 3.96057
67.2507 60.3285 0
71.1327 54.0858 2
68.6801 58.3339 2
65.694 62.2255 2
65.3059 58.9928 2
72.1454 51.8506 4
69.9759 56.25 4
68.8302 53.1149 3.96841
64.0165 64.0165 4
66.6028 57.1347 3.96751
63.8771 60.7607 3.96235
63.3879 57.7189 3.95645
60.3285 67.2507 4
74.6792 42.3947 2
73.7222 47.2057 2
74.9194 39.9526 4
74.2788 44.8158 4
72.1651 42.0856 3.97283
73.0099 49.554 4
71.2456 46.5979 3.97111
73.0099 25.446 0
71.1327 20.9142 0
68.6801 16.6661 0
67.8185 19.9242 0.0322883
74.6792 32.6053 2
73.7222 27.7943 2
67.2508 14.6715 2
72.1455 23.1494 2
70.6094 26.2235 2
66.6304 17.976 2
68.8797 21.9603 2
65.6712 21.0737 2
74.9197 35.0474 4
74.2794 30.1841 4
72.1818 32.9452 3.97298
71.2749 28.4333 3.97105
69.8107 24.0597 3.96936
68.2542 26.9797 3.96514
66.6478 22.9733 3.96263
65.694 12.7746 4
65.3147 16.1037 3.96482
64.5718 19.2495 3.95737
63.5825 22.16 3.96843
71.1327 54.0858 0
65.6939 62.2254 0
68.6801 58.3339 0
65.3041 58.9998 0.0338555
72.1455 51.8506 2
69.9759 56.25 2
68.8303 53.1109 2
64.0165 64.0165 2
66.6044 57.1284 2
63.879 60.7531 2
63.3879 57.7179 2
62.2254 65.694 4
58.8859 65.4088 3.97148
69.7638 50.99 3.96939
67.7765 55.1693 3.96788
66.5217 52.1679 3.96309
62.3278 62.4219 3.96564
64.5268 55.9801 3.95899
62.1332 59.3507 3.952
61.5538 56.5432 3.96255
58.3339 68.6801 4
60.3285 67.2508 2
73.7221 47.2057 0
74.6784 42.3946 0
74.9197 39.9526 2
74.2794 44.8159 2
72.1639 42.0845 2
73.0099 49.554 2
71.2447 46.5961 2
75 37.5 4
72.4023 39.8026 3.97372
71.7791 44.3526 3.97216
69.763 41.784 3.96897
70.5709 48.8138 3.97036
68.8345 45.9964 3.96811
74.6792 32.6053 0
73.7222 27.7943 0
67.2507 14.6715 0
72.1454 23.1494 0
70.6102 26.2222 0.0297908
68.8798 21.9569 0.0315464
66.629 17.9704 0.0334161
65.6689 21.0723 0.0394328
74.9197 35.0474 2
74.2794 30.1841 2
72.1804 32.9454 2
71.2738 28.4343 2
65.694 12.7745 2
65.3157 16.1108 2
69.8102 24.0619 2
68.2561 26.9807 2
64.567 19.252 2
66.6501 22.9746 2
63.5823 22.1614 2
72.4103 35.2256 3.97383
71.8007 30.6784 3.97236
69.7989 33.2786 3.96857
68.8904 29.0598 3.9667
67.5053 24.9465 3.96369
65.8796 27.7235 3.9758
64.0165 10.9835 4
64.45 23.943 3.97233
63.8798 14.331 3.96242
63.3828 17.5041 3.95388
62.6126 20.4558 3.96497
61.6147 23.1508 3.97378
60.6759 11.1054 3.96745
57.5992 11.5141 3.96035
72.1454 51.8506 0
69.9759 56.25 0
68.8302 53.1149 0.0315905
64.0165 64.0165 0
63.8771 60.7607 0.0376544
66.6028 57.1347 0.0324928
63.3879 57.7189 0.0435534
62.2255 65.694 2
58.8901 65.4024 2
69.7635 50.9871 2
67.7772 55.164 2
66.5231 52.1664 2
62.3311 62.4132 2
64.5226 55.9776 2
62.1343 59.3495 2
61.5606 56.5441 2
60.6604 63.9708 3.96459
57.0181 66.7266 3.9707
57.5407 63.6263 3.96742
67.3873 50.1415 3.96464
65.5735 54.1276 3.96149
64.2046 51.2679 3.97297
60.7458 60.8854 3.95131
62.5205 54.9352 3.96736
60.3832 58.0045 3.95787
59.9166 55.5755 3.96926
56.25 69.9759 4
58.3339 68.6801 2
60.3285 67.2507 0
58.9147 9.66485 3.96794
62.2254 9.30607 4
73.0099 49.554 0
74.2788 44.8158 0
71.2456 46.5979 0.028887
72.1651 42.0856 0.0271657
74.9194 39.9526 0
75 37.5 2
72.4016 39.8018 2
71.7784 44.3511 2
69.7637 41.7834 2
70.5704 48.8117 2
68.8366 45.9954 2
72.4859 37.5129 3.97363
70.0097 39.656 3.96896
69.3758 43.8964 3.96887
67.303 41.4664 3.97657
68.1635 48.08 3.96653
66.3833 45.3702 3.97605
74.9197 35.0474 0
74.2794 30.1841 0
72.1818 32.9452 0.0270174
71.2749 28.4333 0.028951
65.694 12.7746 0
65.3147 16.1037 0.0351798
69.8107 24.0597 0.0306439
68.2542 26.9797 0.034858
66.6478 22.9733 0.0373734
64.5718 19.2495 0.0426284
63.5825 22.16 0.0315679
72.4095 35.2253 2
71.7999 30.6792 2
69.8003 33.2791 2
68.893 29.0605 2
64.0165 10.9835 2
63.8823 14.3387 2
63.4003 17.5003 2
67.5076 24.9476 2
65.8763 27.7254 2
62.6192 20.4556 2
64.4489 23.9447 2
61.6147 23.1532 2
60.6793 11.112 2
57.5929 11.5047 2
70.0228 35.398 3.96866
69.4123 31.1646 3.96775
67.368 33.6272 3.97634
66.4619 29.6962 3.97615
65.2145 25.8006 3.97441
63.6245 28.3928 3.97518
62.3318 12.6607 3.96471
62.3574 24.8282 3.97395
62.1325 15.8359 3.95201
61.523 18.8339 3.96121
60.7581 21.562 3.97168
59.794 24.0104 3.97384
59.2247 12.838 3.95594
55.8638 10.3013 3.97073
56.3581 13.2288 3.95634
69.7638 50.99 0.0306138
62.2254 65.694 0
58.8859 65.4088 0.028515
67.7765 55.1693 0.0321181
66.5217 52.1679 0.0369102
62.3278 62.4219 0.0343608
62.1332 59.3507 0.0479965
64.5268 55.9801 0.0410101
61.5538 56.5432 0.0374452
60.6644 63.962 2
57.0219 66.7213 2
57.5449 63.6432 2
67.388 50.14 2
65.5735 54.1258 2
64.2031 51.2666 2
60.7299 60.8906 2
62.525 54.9358 2
60.3828 58.0032 2
59.9131 55.5728 2
55.0645 67.9298 3.97964
59.2056 62.2933 3.97021
55.7798 64.8332 3.96563
56.2895 61.9875 3.97758
64.9854 49.3022 3.97479
63.3808 53.1652 3.97034
61.8884 50.4538 3.97343
59.1627 59.4177 3.95535
60.613 54.0972 3.9725
58.8174 56.7677 3.95982
58.7066 54.9183 3.97075
48.095 68.5653 3.9771
50.9429 69.929 3.98344
54.0858 71.1327 4
56.25 69.976 2
58.3339 68.6801 0
57.0539 8.34116 3.97454
60.3285 7.74928 4
58.9174 9.67172 2
62.2255 9.30602 2
70.5709 48.8138 0.0296436
71.7791 44.3526 0.027837
68.8345 45.9964 0.0318864
69.763 41.784 0.0310299
72.4023 39.8026 0.0262837
75 37.5 0
72.4846 37.5124 2
70.011 39.6556 2
69.3757 43.8955 2
67.2994 41.4659 2
68.1628 48.0785 2
66.3792 45.3693 2
70.0981 37.5239 3.96886
67.5499 39.4993 3.97651
66.914 43.4204 3.97639
65.0731 41.166 3.97607
65.7242 47.3279 3.97565
64.1273 44.7499 3.97553
72.4103 35.2256 0.0261672
71.8007 30.6784 0.0276384
69.7989 33.2786 0.0314346
68.8904 29.0598 0.0332963
64.0165 10.9835 0
63.8798 14.331 0.0375816
63.3828 17.5041 0.0461196
67.5053 24.9465 0.0363143
65.8796 27.7235 0.0241956
64.45 23.943 0.0276697
62.6126 20.4558 0.0350267
61.6147 23.1508 0.0262236
60.6759 11.1054 0.0325474
57.5992 11.5141 0.0396485
70.0242 35.3982 2
69.4141 31.1652 2
67.3648 33.6277 2
66.4582 29.6975 2
62.3352 12.6682 2
62.1417 15.8365 2
61.5275 18.8347 2
65.2118 25.8025 2
63.6237 28.3933 2
60.7576 21.5649 2
62.3563 24.8294 2
59.7915 24.0121 2
59.2211 12.8299 2
56.3519 13.2252 2
55.8644 10.3043 2
67.5913 35.5677 3.97653
66.9664 31.6781 3.9763
65.2308 33.9786 3.97616
64.1489 30.3026 3.97528
63.0234 26.5826 3.97471
61.5572 28.967 3.97487
60.7374 14.2793 3.95217
60.3742 25.5941 3.97404
60.3521 17.2848 3.95917
59.7548 20.0584 3.96724
59.047 22.5596 3.97255
58.2065 24.6672 3.97372
54.0379 9.1674 3.97757
57.8071 14.471 3.95297
54.7624 12.1374 3.96952
55.1966 14.8346 3.95382
67.3873 50.1415 0.0353617
57.0181 66.7266 0.029302
60.6604 63.9708 0.0354148
57.5407 63.6263 0.0325798
65.5735 54.1276 0.0385125
64.2046 51.2679 0.0270287
60.7458 60.8854 0.0486936
60.3832 58.0045 0.042135
62.5205 54.9352 0.0326382
59.9166 55.5755 0.0307435
55.0692 67.9231 2
59.1982 62.3028 2
55.7842 64.8274 2
56.2865 61.9938 2
64.983 49.3006 2
63.3808 53.1645 2
61.8875 50.4531 2
59.1834 59.4233 2
60.6116 54.0951 2
58.8249 56.7682 2
58.7149 54.9183 2
53.0363 68.9948 3.97981
53.9481 65.9669 3.96793
57.7883 60.7647 3.94882
54.6413 63.073 3.96657
55.1306 60.4862 3.97365
62.6311 48.4889 3.97405
61.2273 52.3628 3.97287
59.5137 49.7368 3.97272
57.6848 58.0505 3.9567
58.7352 53.6675 3.97239
57.485 55.5003 3.96287
50.0988 67.8415 3.97223
47.4469 66.547 3.97324
46.0508 69.1457 3.9799
48.0997 68.565 2
48.7973 70.7205 3.98637
50.9485 69.9258 2
51.8506 72.1454 4
54.0858 71.1327 2
56.25 69.9759 0
55.1001 7.14329 3.98723
58.3339 6.31992 4
57.0582 8.34604 2
60.3286 7.74926 2
58.9147 9.66485 0.0320577
62.2254 9.30607 0
68.1635 48.08 0.0334678
69.3758 43.8964 0.031133
66.3833 45.3702 0.0239549
67.303 41.4664 0.0234343
70.0097 39.656 0.0310415
72.4859 37.5129 0.0263713
70.1004 37.5238 2
67.5461 39.4991 2
66.9114 43.4192 2
65.0731 41.1657 2
65.7213 47.3262 2
64.127 44.7497 2
67.6527 37.5261 3.97646
65.3152 39.3505 3.97628
64.678 42.9517 3.97594
63.101 40.8689 3.97634
63.4115 46.5833 3.97444
62.0959 44.0875 3.9757
70.0228 35.398 0.0313447
69.4123 31.1646 0.0322482
67.368 33.6272 0.0236567
66.4619 29.6962 0.0238456
62.3318 12.6607 0.0352892
62.1325 15.8359 0.0479945
61.523 18.8339 0.038788
65.2145 25.8006 0.0255921
63.6245 28.3928 0.0248179
62.3574 24.8282 0.0260499
60.7581 21.562 0.0283162
59.794 24.0104 0.0261626
59.2247 12.838 0.0440645
56.3581 13.2288 0.0436642
55.8638 10.3013 0.0292731
67.588 35.568 2
66.9633 31.6792 2
65.2299 33.9788 2
64.149 30.3027 2
60.731 14.2785 2
60.3442 17.2884 2
59.7524 20.0618 2
63.0224 26.5833 2
61.5574 28.967 2
59.046 22.5626 2
60.3736 25.5947 2
58.2019 24.6694 2
57.8031 14.4622 2
55.1828 14.8171 2
54.0417 9.16008 2
54.7532 12.132 2
65.4142 35.6952 3.9762
64.6877 32.2317 3.97558
63.6876 34.3099 3.97612
61.8816 30.7842 3.97529
60.9562 27.2916 3.97443
60.0081 29.3673 3.97536
59.1171 15.8234 3.95582
58.4994 26.114 3.9746
58.6755 18.6103 3.96159
58.1245 21.1751 3.96839
57.5452 23.4595 3.97245
57.1126 25.0492 3.9746
52.1043 8.19153 3.96488
53.045 11.0892 3.95758
56.4685 15.9526 3.95505
53.7404 13.8348 3.95294
54.1665 16.2289 3.95783
55.0645 67.9298 0.0203636
64.9854 49.3022 0.0252072
55.7798 64.8332 0.0343709
59.2056 62.2933 0.0297938
56.2895 61.9875 0.0224189
63.3808 53.1652 0.0296646
61.8884 50.4538 0.0265735
59.1627 59.4177 0.0446534
58.8174 56.7677 0.0401757
60.613 54.0972 0.0275028
58.7066 54.9183 0.0292532
53.0421 68.9907 2
53.9521 65.9605 2
57.7911 60.7848 2
54.6351 63.068 2
55.1277 60.4905 2
62.6306 48.4882 2
61.2267 52.3615 2
59.5136 49.7359 2
57.6844 58.0507 2
58.7394 53.6659 2
57.4813 55.4964 2
52.056 66.9693 3.97181
52.9215 64.1207 3.96793
56.4461 59.3095 3.95347
53.5949 61.4308 3.96551
[...]
POINT_DATA 3012
SCALARS rho_c_phif_kappa float 4
LOOKUP_TABLE default
1000 0 1.00267 0.276388
1000 0 1.00211 0.276677
1000 0 1.00267 0.276771
1000 0 1.00266 0.277077
1000 0 1.00266 0.276605
1000 0 1.00267 0.276225
1012.66 1.37951e-08 1.00318 0.273412
1000 0 1.00211 0.276637
1000 0 1.00211 0.277917
1000 0 1.00211 0.277384
1000 0 1.00267 0.276047
1012.6 1.34968e-08 1.00345 0.272471
1000 0 1.00265 0.277822
1000 0 1.00265 0.278807
1000 0 1.00266 0.277151
1000 0 1.00266 0.277821
1000 0 1.00267 0.276523
1000 0 1.00266 0.277117
1012.46 1.38475e-08 1.00318 0.2732
1000 0 1.0021 0.277792
1000 0 1.00266 0.277226
1000 0 1.00266 0.276853
1012.63 1.39889e-08 1.00317 0.275824
1012.65 1.38715e-08 1.00318 0.274307
1000 0 1.00267 0.276132
1012.69 1.37231e-08 1.00319 0.272361
1014.37 1.63978e-08 1.00372 0.26531
1000 0 1.00211 0.276614
1000 0 1.00238 0.277379
1000 0 1.00239 0.276894
1000 0 1.00211 0.276627
1012.51 1.35593e-08 1.00345 0.272533
1000 0 1.00266 0.277046
1000 0 1.00266 0.276444
1012.67 1.39009e-08 1.00317 0.273555
1000 0 1.00211 0.27754
1012.59 1.36103e-08 1.00317 0.272621
1012.65 1.34498e-08 1.00346 0.272564
1014.36 1.62946e-08 1.00373 0.261831
1000 0 1.00211 0.278003
1000 0 1.0021 0.277823
1000 0 1.00238 0.278233
1000 0 1.0021 0.277894
1000 0 1.00266 0.278989
1012.6 1.40312e-08 1.00343 0.276217
1000 0 1.00211 0.278584
1012.67 1.40657e-08 1.00316 0.275419
1000 0 1.00265 0.278581
1000 0 1.00266 0.277629
1000 0 1.00267 0.276812
1012.66 1.37951e-08 1.00318 0.273037
1000 0 1.00238 0.27821
1000 0 1.00265 0.27803
1000 0 1.00267 0.27636
1000 0 1.00266 0.277495
1012.34 1.40345e-08 1.00317 0.275442
1012.54 1.37786e-08 1.00319 0.272095
1012.4 1.39199e-08 1.00318 0.274026
1014.39 1.63913e-08 1.00372 0.265226
1000 0 1.0021 0.277883
1000 0 1.00266 0.277349
1012.57 1.3997e-08 1.00315 0.276682
1012.63 1.40148e-08 1.00317 0.276277
1012.64 1.394e-08 1.00317 0.275134
1014.35 1.64295e-08 1.0037 0.269786
1014.36 1.64112e-08 1.00371 0.266275
1000 0 1.00268 0.276184
1012.74 1.36673e-08 1.00319 0.271447
1014.39 1.63834e-08 1.00372 0.263479
1014.35 1.6445e-08 1.00371 0.257131
1000 0 1.00211 0.277001
1000 0 1.00211 0.276861
1000 0 1.00211 0.27667
1012.6 1.34968e-08 1.00345 0.272597
1000 0 1.00211 0.277246
1000 0 1.00211 0.276828
1012.43 1.39492e-08 1.00344 0.273791
1000 0 1.00239 0.277031
1012.45 1.3667e-08 1.00345 0.272796
1012.62 1.35235e-08 1.00332 0.272569
1014.37 1.62947e-08 1.00373 0.261808
1000 0 1.00211 0.277441
1013 1.35278e-08 1.00351 0.27439
1012.69 1.4001e-08 1.00344 0.274441
1012.63 1.37602e-08 1.00345 0.273232
1014.37 1.64211e-08 1.00372 0.265993
1012.74 1.34432e-08 1.00319 0.27282
1014.36 1.63387e-08 1.00373 0.262957
1014.39 1.62742e-08 1.00374 0.262238
1014.37 1.64664e-08 1.00372 0.255455
1000 0 1.00212 0.278488
1000 0 1.00211 0.278268
1000 0 1.00211 0.277563
1000 0 1.0021 0.277794
1000 0 1.0021 0.277871
1000 0 1.00238 0.278359
1012.22 1.40733e-08 1.00329 0.276147
1000 0 1.00238 0.278005
1012.41 1.41107e-08 1.0033 0.27567
1000 0 1.0021 0.277889
1012.58 1.4003e-08 1.00342 0.276478
1012.66 1.40539e-08 1.00316 0.275746
1014.33 1.64217e-08 1.00372 0.272309
1012.69 1.40543e-08 1.00316 0.275028
1014.36 1.64459e-08 1.00372 0.271229
1000 0 1.00265 0.277771
1000 0 1.00265 0.278865
1000 0 1.00268 0.276581
1000 0 1.00265 0.278137
1012.63 1.39889e-08 1.00317 0.275068
1012.65 1.38715e-08 1.00318 0.273758
1012.69 1.37231e-08 1.00319 0.271636
1014.37 1.63978e-08 1.00372 0.26508
1000 0 1.0021 0.277851
1000 0 1.00266 0.278145
1012.21 1.404e-08 1.00329 0.276219
1012.34 1.40605e-08 1.00317 0.275912
1000 0 1.0024 0.276204
1012.66 1.37333e-08 1.00319 0.271646
1012.37 1.39865e-08 1.00317 0.274777
1014.37 1.64215e-08 1.0037 0.269679
1014.4 1.63815e-08 1.00372 0.262912
1014.38 1.64038e-08 1.00371 0.266482
1014.35 1.64465e-08 1.00371 0.25715
1012.55 1.39871e-08 1.00342 0.276485
1012.62 1.40153e-08 1.00317 0.276476
1014.32 1.6411e-08 1.00369 0.27207
1014.35 1.64307e-08 1.0037 0.270714
1014.36 1.64231e-08 1.0037 0.267976
1014.34 1.64325e-08 1.00371 0.264342
1000 0 1.00212 0.276985
1014.34 1.64377e-08 1.00371 0.258839
1012.8 1.36369e-08 1.00348 0.271993
1014.4 1.63672e-08 1.00374 0.260402
1014.36 1.6456e-08 1.00372 0.25563
1014.27 1.63569e-08 1.0037 0.254025
1012.95 1.36212e-08 1.0035 0.273001
1014.57 1.64211e-08 1.00376 0.269017
1000 0 1.00211 0.277214
1000 0 1.00211 0.276811
1012.67 1.39009e-08 1.00344 0.273785
1000 0 1.00211 0.277287
1012.65 1.34498e-08 1.00346 0.272611
1012.59 1.36103e-08 1.00345 0.272822
1014.36 1.62946e-08 1.00373 0.261821
1000 0 1.00211 0.277669
1013.08 1.35854e-08 1.00351 0.274634
1012.43 1.40465e-08 1.0033 0.274324
1012.43 1.38122e-08 1.00331 0.273118
1014.39 1.64139e-08 1.00372 0.266007
1012.73 1.35202e-08 1.00347 0.272831
1014.37 1.63373e-08 1.00373 0.26306
1014.4 1.62722e-08 1.00374 0.262452
1014.38 1.64688e-08 1.00372 0.255098
1012.82 1.34791e-08 1.00349 0.273474
1013.1 1.35773e-08 1.00352 0.275339
1014.6 1.6399e-08 1.00376 0.271651
1014.37 1.64432e-08 1.00372 0.26772
1014.36 1.63843e-08 1.00373 0.264541
1014.33 1.64241e-08 1.00371 0.258715
1014.45 1.63037e-08 1.00375 0.264566
1014.35 1.64473e-08 1.00371 0.254734
1014.37 1.64702e-08 1.00373 0.254502
1014.31 1.63995e-08 1.00371 0.253308
1000 0 1.00212 0.278843
1000 0 1.00212 0.278651
1000 0 1.00212 0.278443
1013.06 1.36458e-08 1.00351 0.274182
1000 0 1.00212 0.277472
1000 0 1.00211 0.27741
1000 0 1.00211 0.2777
1012.67 1.40657e-08 1.00344 0.275952
1012.6 1.40312e-08 1.00343 0.276475
1000 0 1.0021 0.277889
1000 0 1.0021 0.277897
1012.44 1.40427e-08 1.00342 0.276499
1012.54 1.40954e-08 1.0033 0.276008
1014.37 1.64143e-08 1.00371 0.272319
1012.4 1.40985e-08 1.00344 0.275323
1014.39 1.6437e-08 1.00372 0.271157
1012.53 1.39806e-08 1.00342 0.2765
1014.33 1.64087e-08 1.00371 0.272665
1014.35 1.64328e-08 1.00372 0.271888
1014.34 1.64332e-08 1.0037 0.269068
1014.36 1.64503e-08 1.00372 0.269646
1014.34 1.64307e-08 1.00371 0.266235
1000 0 1.0021 0.277875
1000 0 1.00266 0.278999
1012.57 1.3997e-08 1.00344 0.276187
1012.63 1.40148e-08 1.00317 0.27556
1000 0 1.00212 0.276999
1012.74 1.36673e-08 1.00318 0.271961
1012.64 1.394e-08 1.00317 0.274438
1014.35 1.64295e-08 1.0037 0.269558
1014.36 1.64112e-08 1.00371 0.266671
1014.39 1.63834e-08 1.00372 0.262594
1014.35 1.6445e-08 1.00371 0.257179
1012.4 1.40269e-08 1.00342 0.276479
1012.51 1.40576e-08 1.00317 0.276153
1014.36 1.64035e-08 1.0037 0.271925
1014.38 1.64221e-08 1.0037 0.270874
1000 0 1.00212 0.276821
1012.75 1.37104e-08 1.00334 0.272164
1014.41 1.63569e-08 1.00373 0.260767
1014.38 1.64152e-08 1.0037 0.267907
1014.34 1.64335e-08 1.00371 0.264006
1014.36 1.64561e-08 1.00372 0.255698
1014.34 1.6439e-08 1.00371 0.259122
1014.27 1.63564e-08 1.0037 0.254077
1012.99 1.36838e-08 1.0035 0.272948
1014.56 1.64085e-08 1.00376 0.268936
1014.32 1.64045e-08 1.00371 0.272673
1014.34 1.64236e-08 1.0037 0.271421
1014.34 1.64369e-08 1.00371 0.268893
1014.34 1.6432e-08 1.0037 0.265577
1014.34 1.6434e-08 1.00371 0.261358
1014.26 1.63457e-08 1.0037 0.261144
1012.87 1.36168e-08 1.00349 0.272266
1014.26 1.63491e-08 1.0037 0.255803
1014.43 1.63509e-08 1.00374 0.26175
1014.36 1.646e-08 1.00372 0.253462
1014.28 1.63706e-08 1.00371 0.252856
1014.25 1.63311e-08 1.0037 0.252782
1014.53 1.63915e-08 1.00375 0.266919
1014.63 1.64692e-08 1.00377 0.270888
1014.46 1.65814e-08 1.00374 0.264237
1012.69 1.4001e-08 1.00344 0.274511
1000 0 1.00211 0.277997
1013 1.35278e-08 1.00351 0.275084
1012.63 1.37602e-08 1.00344 0.273221
1014.37 1.64211e-08 1.00372 0.266021
1012.74 1.34432e-08 1.00347 0.272757
1014.39 1.62742e-08 1.00374 0.262609
1014.36 1.63387e-08 1.00373 0.263215
1014.37 1.64664e-08 1.00372 0.254713
1012.9 1.35423e-08 1.00349 0.27363
1013.21 1.36311e-08 1.00352 0.275758
1014.58 1.63856e-08 1.00376 0.271772
1014.39 1.64359e-08 1.00372 0.267736
1014.38 1.6379e-08 1.00373 0.26461
1014.33 1.6426e-08 1.00371 0.258687
1014.47 1.63051e-08 1.00375 0.265139
1014.35 1.64483e-08 1.00372 0.254959
1014.37 1.647e-08 1.00373 0.254445
1014.31 1.63993e-08 1.00371 0.252911
1013.28 1.36325e-08 1.00353 0.276417
1014.52 1.63607e-08 1.00376 0.269011
1014.63 1.64297e-08 1.00377 0.27302
1014.49 1.66146e-08 1.00375 0.267692
1014.33 1.6415e-08 1.00371 0.260845
1014.34 1.6435e-08 1.00371 0.256601
1014.26 1.63663e-08 1.0037 0.255249
1014.4 1.64964e-08 1.00373 0.256784
1014.27 1.63661e-08 1.00371 0.250786
1014.29 1.6382e-08 1.00371 0.251131
1014.29 1.63873e-08 1.00371 0.252643
1014.69 1.64982e-08 1.00377 0.27702
1013.48 1.37346e-08 1.00355 0.27718
1000 0 1.00212 0.279019
1000 0 1.00212 0.278953
1000 0 1.00212 0.278818
1013.18 1.37025e-08 1.00353 0.275164
1000 0 1.00212 0.278024
1013.15 1.37094e-08 1.00351 0.273794
1000 0 1.00212 0.277277
1012.69 1.40543e-08 1.00344 0.275308
1012.66 1.40539e-08 1.00343 0.27631
1014.36 1.64459e-08 1.00372 0.271079
1014.33 1.64217e-08 1.00371 0.272292
1012.58 1.4003e-08 1.00342 0.27652
1000 0 1.0021 0.277887
1012.11 1.40233e-08 1.00342 0.276494
1014.33 1.64018e-08 1.00371 0.272662
1014.36 1.64257e-08 1.00372 0.271846
1014.34 1.64341e-08 1.0037 0.269047
1014.39 1.64432e-08 1.00372 0.269676
1014.33 1.64318e-08 1.00371 0.266301
1014.31 1.64027e-08 1.00371 0.272789
1014.34 1.64295e-08 1.0037 0.269612
1014.34 1.64337e-08 1.00371 0.268125
1014.27 1.63789e-08 1.0037 0.267233
1014.33 1.64242e-08 1.00371 0.263675
1014.27 1.6361e-08 1.0037 0.264272
1012.55 1.39871e-08 1.00342 0.27646
1012.62 1.40153e-08 1.00317 0.275778
1014.32 1.6411e-08 1.00371 0.271804
1014.35 1.64307e-08 1.00371 0.27098
1000 0 1.00212 0.276636
1012.8 1.36369e-08 1.00319 0.271916
1014.4 1.63672e-08 1.00373 0.261166
1014.36 1.64231e-08 1.00371 0.267818
1014.34 1.64325e-08 1.0037 0.263673
1014.34 1.64377e-08 1.00371 0.25941
1014.36 1.6456e-08 1.00372 0.255719
1014.27 1.63569e-08 1.0037 0.25411
1012.95 1.36212e-08 1.0035 0.272854
1014.57 1.64211e-08 1.00376 0.268418
1014.32 1.63978e-08 1.00371 0.272479
1014.35 1.64162e-08 1.0037 0.271459
1014.34 1.64378e-08 1.00371 0.268783
1014.33 1.64331e-08 1.00371 0.265931
1012.85 1.36864e-08 1.00349 0.272358
1014.44 1.63414e-08 1.00374 0.261549
1014.36 1.64643e-08 1.00372 0.253481
1014.34 1.64352e-08 1.00371 0.261553
1014.26 1.63454e-08 1.0037 0.260824
1014.28 1.63707e-08 1.00371 0.252703
1014.26 1.63488e-08 1.0037 0.255843
1014.25 1.63309e-08 1.0037 0.252471
1014.53 1.63868e-08 1.00375 0.266937
1014.46 1.65838e-08 1.00374 0.264116
1014.61 1.647e-08 1.00377 0.270802
1014.34 1.64333e-08 1.00371 0.269777
1014.34 1.64325e-08 1.00371 0.267444
1014.27 1.63679e-08 1.0037 0.267261
1014.26 1.63477e-08 1.0037 0.262998
1014.26 1.63448e-08 1.0037 0.257657
1014.24 1.6318e-08 1.00369 0.25842
1014.48 1.63679e-08 1.00375 0.264768
1014.24 1.63214e-08 1.00369 0.253528
1014.37 1.64715e-08 1.00372 0.253222
1014.28 1.63747e-08 1.00371 0.249044
1014.26 1.63485e-08 1.0037 0.251055
1014.22 1.62713e-08 1.00369 0.250471
1014.66 1.64853e-08 1.00377 0.273122
1014.43 1.65419e-08 1.00374 0.260103
1014.49 1.66258e-08 1.00375 0.269004
1014.38 1.64963e-08 1.00373 0.259685
1014.37 1.64432e-08 1.00372 0.267757
1013.1 1.35773e-08 1.00352 0.276005
1012.82 1.34791e-08 1.00349 0.273801
1014.6 1.6399e-08 1.00376 0.271821
1014.36 1.63843e-08 1.00373 0.26466
1014.33 1.64241e-08 1.00371 0.258659
1014.45 1.63037e-08 1.00375 0.265802
1014.37 1.64702e-08 1.00373 0.254501
1014.35 1.64473e-08 1.00372 0.255165
1014.31 1.63995e-08 1.00371 0.252605
1013.31 1.3677e-08 1.00353 0.276655
1014.53 1.63577e-08 1.00376 0.269352
1014.61 1.64248e-08 1.00377 0.273069
1014.5 1.6617e-08 1.00375 0.267863
1014.33 1.64152e-08 1.00371 0.26081
1014.34 1.64368e-08 1.00371 0.256592
1014.26 1.63649e-08 1.0037 0.25525
1014.4 1.64973e-08 1.00373 0.256655
1014.27 1.63666e-08 1.00371 0.251053
1014.29 1.63825e-08 1.00371 0.250866
1014.29 1.63883e-08 1.00371 0.25348
1013.35 1.36863e-08 1.00355 0.276919
1014.65 1.6443e-08 1.00377 0.274614
1014.45 1.65557e-08 1.00374 0.261938
1014.5 1.66316e-08 1.00375 0.270888
1014.42 1.65328e-08 1.00374 0.263095
1014.26 1.63948e-08 1.0037 0.257441
1014.26 1.63536e-08 1.0037 0.252405
1014.22 1.63013e-08 1.00369 0.25179
1014.3 1.6389e-08 1.00372 0.249233
1014.26 1.63786e-08 1.0037 0.248291
1014.25 1.63689e-08 1.00371 0.248666
1014.68 1.64741e-08 1.00377 0.276576
1014.51 1.66784e-08 1.00376 0.275337
1014.71 1.65249e-08 1.00378 0.277565
1014.69 1.64981e-08 1.00377 0.277161
1013.57 1.3791e-08 1.00326 0.277646
1013.5 1.37668e-08 1.0034 0.277587
1000 0 1.00272 0.278373
1000 0 1.00212 0.279044
1000 0 1.00212 0.27899
1013.37 1.37836e-08 1.00354 0.276214
1000 0 1.00212 0.2787
1013.3 1.37515e-08 1.00353 0.274974
1000 0 1.00212 0.277801
1013.06 1.36458e-08 1.00351 0.273626
1000 0 1.00212 0.277101
1014.36 1.64503e-08 1.00372 0.269697
1014.35 1.64328e-08 1.00372 0.271845
1014.34 1.64307e-08 1.00371 0.266251
1014.34 1.64332e-08 1.0037 0.269031
1014.33 1.64087e-08 1.00371 0.272653
1012.53 1.39806e-08 1.00342 0.27648
1014.35 1.63949e-08 1.00371 0.272788
1014.34 1.64304e-08 1.0037 0.269612
1014.34 1.64347e-08 1.00371 0.267986
1014.27 1.63789e-08 1.0037 0.267182
1014.33 1.64252e-08 1.00371 0.263617
1014.27 1.63609e-08 1.0037 0.264244
1014.34 1.64287e-08 1.0037 0.269772
1014.28 1.63975e-08 1.0037 0.268015
1014.27 1.63693e-08 1.0037 0.266444
1014.25 1.63412e-08 1.00369 0.266455
1014.26 1.63576e-08 1.0037 0.260257
1014.25 1.6317e-08 1.00369 0.261843
1014.32 1.64045e-08 1.00371 0.272299
1014.34 1.64236e-08 1.0037 0.271594
1014.34 1.64369e-08 1.00371 0.268585
1014.34 1.6432e-08 1.00371 0.266316
1012.87 1.36168e-08 1.00349 0.272448
1014.43 1.63509e-08 1.00374 0.261151
1014.36 1.646e-08 1.00372 0.253477
1014.34 1.6434e-08 1.00371 0.261754
1014.26 1.63457e-08 1.0037 0.2605
1014.26 1.63491e-08 1.0037 0.255884
1014.28 1.63706e-08 1.00371 0.2526
1014.25 1.63311e-08 1.0037 0.252239
1014.53 1.63915e-08 1.00376 0.267055
1014.46 1.65814e-08 1.00374 0.264352
1014.63 1.64692e-08 1.00377 0.271019
1014.34 1.64341e-08 1.00371 0.269621
1014.34 1.64336e-08 1.00371 0.267581
1014.27 1.63676e-08 1.0037 0.267051
1014.26 1.63474e-08 1.0037 0.263286
1014.49 1.63661e-08 1.00375 0.264276
1014.37 1.64726e-08 1.00372 0.252945
1014.29 1.63745e-08 1.00371 0.249202
1014.26 1.63446e-08 1.0037 0.257999
1014.24 1.63182e-08 1.00369 0.258132
1014.26 1.63484e-08 1.0037 0.250884
1014.24 1.63217e-08 1.00369 0.253523
1014.22 1.6271e-08 1.00369 0.250715
1014.43 1.65452e-08 1.00374 0.259824
1014.38 1.64968e-08 1.00373 0.259648
1014.64 1.64808e-08 1.00377 0.27303
1014.5 1.66265e-08 1.00375 0.269658
1014.28 1.63933e-08 1.0037 0.267943
1014.27 1.63589e-08 1.0037 0.265563
1014.25 1.6322e-08 1.00369 0.266396
1014.24 1.63315e-08 1.00369 0.260392
1014.24 1.63286e-08 1.00369 0.255503
1014.24 1.62993e-08 1.00369 0.256358
1014.39 1.65002e-08 1.00373 0.255536
1014.22 1.62702e-08 1.00369 0.250639
1014.28 1.63702e-08 1.00371 0.24678
1014.26 1.63624e-08 1.0037 0.246287
1014.23 1.62592e-08 1.0037 0.249632
1014.21 1.62201e-08 1.00369 0.248883
1014.67 1.65026e-08 1.00377 0.273898
1014.49 1.66306e-08 1.00375 0.270635
1014.34 1.64398e-08 1.00373 0.254554
1014.43 1.65466e-08 1.00374 0.265406
1014.35 1.64491e-08 1.00373 0.255203
1013.28 1.36325e-08 1.00353 0.276963
1014.33 1.6415e-08 1.00371 0.260785
1014.63 1.64297e-08 1.00377 0.273008
1014.52 1.63607e-08 1.00376 0.269846
1014.49 1.66146e-08 1.00375 0.268203
1014.34 1.6435e-08 1.00371 0.256575
1014.26 1.63663e-08 1.0037 0.255249
1014.4 1.64964e-08 1.00373 0.256468
1014.29 1.6382e-08 1.00371 0.250254
1014.27 1.63661e-08 1.00371 0.251379
1014.29 1.63873e-08 1.00371 0.253934
1013.41 1.37204e-08 1.00355 0.277081
1014.65 1.64443e-08 1.00377 0.275033
1014.45 1.65572e-08 1.00374 0.262656
1014.5 1.66323e-08 1.00375 0.271183
1014.42 1.65327e-08 1.00374 0.262162
1014.26 1.64001e-08 1.0037 0.257402
1014.27 1.63524e-08 1.0037 0.252428
1014.22 1.63067e-08 1.00369 0.251761
1014.3 1.63913e-08 1.00372 0.249307
1014.26 1.63772e-08 1.0037 0.248691
1014.25 1.63685e-08 1.00371 0.248455
1014.67 1.64593e-08 1.00377 0.275869
1014.51 1.66551e-08 1.00376 0.272062
1014.35 1.64581e-08 1.00373 0.254914
1014.44 1.65649e-08 1.00375 0.26733
1014.38 1.64902e-08 1.00374 0.257726
1014.21 1.61233e-08 1.00369 0.255022
1014.25 1.63968e-08 1.0037 0.248681
1014.16 1.57935e-08 1.00368 0.248004
1014.26 1.63834e-08 1.00371 0.244268
1014.22 1.62605e-08 1.0037 0.245415
1014.67 1.64754e-08 1.00377 0.276658
1014.51 1.66707e-08 1.00375 0.27508
1014.52 1.6679e-08 1.00375 0.275408
1014.49 1.66318e-08 1.00376 0.273702
1014.52 1.66878e-08 1.00376 0.275558
1014.72 1.65515e-08 1.00378 0.277778
1014.71 1.65216e-08 1.00377 0.277515
1013.67 1.38584e-08 1.00327 0.277759
1014.69 1.64982e-08 1.00377 0.277142
1013.58 1.38102e-08 1.00326 0.277928
1000 0 1.00273 0.278361
1013.48 1.37346e-08 1.00325 0.277827
1000 0 1.00242 0.278468
1000 0 1.00212 0.279137
1013.49 1.38635e-08 1.00356 0.276919
1013.45 1.38084e-08 1.00354 0.275929
1000 0 1.00212 0.278891
1000 0 1.00212 0.278365
1013.18 1.37025e-08 1.00353 0.274581
1000 0 1.00212 0.277575
1014.33 1.64242e-08 1.00371 0.263554
1014.34 1.64337e-08 1.00371 0.267965
1014.27 1.6361e-08 1.0037 0.264245
1014.27 1.63789e-08 1.0037 0.267132
1014.34 1.64295e-08 1.0037 0.269615
1014.31 1.64027e-08 1.00371 0.272781
1014.34 1.64301e-08 1.0037 0.269775
1014.28 1.63969e-08 1.0037 0.26805
1014.27 1.63685e-08 1.0037 0.266422
1014.25 1.63406e-08 1.00369 0.266312
1014.26 1.63569e-08 1.0037 0.26024
1014.25 1.63163e-08 1.00369 0.261989
1014.29 1.6403e-08 1.0037 0.268259
1014.26 1.63726e-08 1.00369 0.267305
1014.24 1.63418e-08 1.00369 0.264925
1014.18 1.59844e-08 1.00369 0.265611
1014.24 1.63088e-08 1.00369 0.258789
1014.23 1.62254e-08 1.00369 0.261165
1014.34 1.64333e-08 1.0037 0.269476
1014.34 1.64325e-08 1.00371 0.267566
1014.27 1.63679e-08 1.0037 0.266886
1014.26 1.63477e-08 1.0037 0.26358
1014.48 1.63679e-08 1.00375 0.263892
1014.37 1.64715e-08 1.00372 0.252783
1014.28 1.63747e-08 1.00371 0.249343
1014.26 1.63448e-08 1.0037 0.258336
1014.24 1.6318e-08 1.00369 0.257861
1014.24 1.63214e-08 1.00369 0.253521
1014.26 1.63485e-08 1.0037 0.250513
1014.22 1.62713e-08 1.00369 0.250685
1014.43 1.65419e-08 1.00374 0.259278
1014.38 1.64963e-08 1.00373 0.259475
1014.66 1.64853e-08 1.00377 0.272845
1014.49 1.66258e-08 1.00375 0.269418
1014.28 1.63927e-08 1.0037 0.267946
1014.27 1.63584e-08 1.0037 0.265484
1014.25 1.63218e-08 1.00369 0.266317
1014.24 1.63313e-08 1.00369 0.260543
1014.39 1.65009e-08 1.00373 0.255737
1014.28 1.63692e-08 1.00371 0.247063
1014.26 1.6362e-08 1.0037 0.245824
1014.24 1.63286e-08 1.00369 0.255698
1014.24 1.6299e-08 1.00369 0.256313
1014.23 1.62583e-08 1.0037 0.249229
1014.22 1.62705e-08 1.00369 0.250589
1014.21 1.62194e-08 1.00369 0.24902
1014.34 1.64429e-08 1.00373 0.25419
1014.35 1.645e-08 1.00373 0.254642
1014.43 1.65489e-08 1.00374 0.265691
1014.67 1.65094e-08 1.00377 0.274194
1014.49 1.66355e-08 1.00375 0.270206
1014.25 1.63529e-08 1.00369 0.267002
1014.25 1.63087e-08 1.00369 0.264519
1014.23 1.62384e-08 1.00369 0.257296
1014.2 1.61811e-08 1.00369 0.253303
1014.3 1.63901e-08 1.00372 0.249407
1014.23 1.62765e-08 1.00369 0.24601
1014.25 1.63633e-08 1.0037 0.242161
1014.21 1.62227e-08 1.0037 0.242641
1014.19 1.60832e-08 1.00369 0.248075
1014.71 1.65474e-08 1.00377 0.275421
1014.48 1.66383e-08 1.00376 0.270439
1014.45 1.65831e-08 1.00375 0.268753
1014.31 1.64104e-08 1.00372 0.250089
1014.4 1.65057e-08 1.00374 0.259623
1014.33 1.64003e-08 1.00372 0.251436
1013.35 1.36863e-08 1.00354 0.277197
1014.65 1.6443e-08 1.00377 0.275364
1014.26 1.63948e-08 1.0037 0.257359
1014.5 1.66316e-08 1.00375 0.271911
1014.45 1.65557e-08 1.00374 0.263209
1014.42 1.65328e-08 1.00374 0.261225
1014.26 1.63536e-08 1.0037 0.252455
1014.22 1.63013e-08 1.00369 0.251736
1014.3 1.6389e-08 1.00372 0.249501
1014.25 1.63689e-08 1.00371 0.248617
1014.26 1.63786e-08 1.0037 0.249054
1014.66 1.64584e-08 1.00377 0.276017
1014.51 1.66574e-08 1.00375 0.273154
1014.36 1.6459e-08 1.00373 0.254788
1014.44 1.65658e-08 1.00375 0.267479
1014.39 1.64954e-08 1.00373 0.257471
1014.21 1.60969e-08 1.00369 0.255022
1014.25 1.64023e-08 1.0037 0.248701
1014.16 1.57678e-08 1.00369 0.247979
1014.26 1.63848e-08 1.00371 0.244029
1014.22 1.62651e-08 1.0037 0.24464
1014.51 1.666e-08 1.00376 0.274256