# vtk DataFile Version 2.0
Wound Healing Simulation
ASCII
DATASET UNSTRUCTURED_GRID
POINTS 3012 float
69.9759 18.75 4
67.2507 60.3285 4
69.976 18.75 2
73.0099 25.446 4
71.1327 20.9142 4
68.6801 16.6661 4
67.8191 19.9236 3.96974
67.2507 60.3286 2
71.1327 54.0858 4
68.6801 58.3339 4
65.6939 62.2254 4
65.3058 58.9996 3.96883
74.6784 42.3946 4
73.7221 47.2057 4
69.9759 18.75 0
73.0099 25.446 2
68.6801 16.6661 2
71.1327 20.9142 2
67.8194 19.9276 2
74.6792 32.6053 4
73.7222 27.7943 4
72.1454 23.1494 4
70.6103 26.2211 3.97073
68.8801 21.9559 3.97018
67.2507 14.6715 4
66.6297 17.9706 3.96883
65.6923 21.0594 3.96036
67.2507 60.3285 0
71.1327 54.0858 2
68.6801 58.3339 2
65.694 62.2255 2
65.3075 58.9935 2
72.1454 51.8506 4
69.9759 56.25 4
68.8308 53.1151 3.97018
64.0165 64.0165 4
66.6039 57.1342 3.96956
63.8785 60.7614 3.96522
63.4179 57.7353 3.95704
60.3285 67.2507 4
74.6792 42.3947 2
73.7222 47.2057 2
74.9194 39.9526 4
74.2788 44.8158 4
72.1654 42.086 3.97334
73.0099 49.554 4
71.2458 46.5985 3.97169
73.0099 25.446 0
71.1327 20.9142 0
68.6801 16.6661 0
67.8191 19.9236 0.0302638
74.6792 32.6053 2
73.7222 27.7943 2
67.2508 14.6715 2
72.1455 23.1494 2
70.6094 26.2223 2
66.6309 17.9751 2
68.8799 21.9588 2
65.6935 21.0599 2
74.9197 35.0474 4
74.2794 30.1841 4
72.1821 32.9447 3.97337
71.275 28.4324 3.97143
69.8108 24.0586 3.97032
68.2779 26.9713 3.96396
66.6702 22.9621 3.96224
65.694 12.7746 4
65.3166 16.104 3.96833
64.6026 19.2333 3.95821
63.6297 22.1341 3.96615
71.1327 54.0858 0
65.6939 62.2254 0
68.6801 58.3339 0
65.3058 58.9996 0.0311674
72.1455 51.8506 2
69.9759 56.25 2
68.8309 53.1113 2
64.0165 64.0165 2
66.6053 57.1284 2
63.88 60.7544 2
63.4098 57.7349 2
62.2254 65.694 4
58.8883 65.4079 3.97276
69.764 50.9903 3.97039
67.7774 55.1692 3.96998
66.549 52.1789 3.96299
62.3288 62.4223 3.96604
64.5591 55.9952 3.95932
62.1721 59.3729 3.9527
61.6065 56.5771 3.96132
58.3339 68.6801 4
60.3285 67.2508 2
73.7221 47.2057 0
74.6784 42.3946 0
74.9197 39.9526 2
74.2794 44.8159 2
72.1642 42.0848 2
73.0099 49.554 2
71.2449 46.5967 2
75 37.5 4
72.4026 39.8028 3.97421
71.7793 44.3532 3.97271
69.7721 41.7856 3.9677
70.571 48.8144 3.97104
68.8492 46.0007 3.96639
74.6792 32.6053 0
73.7222 27.7943 0
67.2507 14.6715 0
72.1454 23.1494 0
70.6103 26.2211 0.0292726
68.8801 21.9559 0.0298158
66.6297 17.9706 0.0311715
65.6923 21.0594 0.0396355
74.9197 35.0474 2
74.2794 30.1841 2
72.1807 32.9449 2
71.2739 28.4332 2
65.694 12.7745 2
65.317 16.1098 2
69.8103 24.0605 2
68.2808 26.9719 2
64.5957 19.2348 2
66.6723 22.9628 2
63.6302 22.1343 2
72.4105 35.2254 3.97418
71.801 30.6777 3.97278
69.8077 33.2766 3.96684
68.9104 29.0538 3.96493
67.5316 24.936 3.96336
65.9413 27.7036 3.9746
64.0165 10.9835 4
64.4909 23.9211 3.9693
63.8814 14.3312 3.96476
63.4114 17.4871 3.95521
62.6568 20.4268 3.96307
61.6789 23.1089 3.97293
60.6781 11.1056 3.97137
57.6011 11.503 3.96309
72.1454 51.8506 0
69.9759 56.25 0
68.8308 53.1151 0.0298229
64.0165 64.0165 0
63.8785 60.7614 0.0347804
66.6039 57.1342 0.0304354
63.4179 57.7353 0.0429627
62.2255 65.694 2
58.8921 65.4019 2
69.7638 50.9876 2
67.7781 55.1642 2
66.5501 52.178 2
62.3313 62.413 2
64.5526 55.9939 2
62.1616 59.3726 2
61.6111 56.5786 2
60.662 63.9712 3.97117
57.0199 66.7304 3.97639
57.5408 63.6383 3.96709
67.4141 50.151 3.96417
65.5982 54.1395 3.96109
64.2503 51.291 3.9703
60.7581 60.8984 3.9588
62.5755 54.9661 3.96523
60.4549 58.0472 3.9562
59.9952 55.6246 3.96735
56.25 69.9759 4
58.3339 68.6801 2
60.3285 67.2507 0
58.9174 9.66431 3.97128
62.2254 9.30607 4
73.0099 49.554 0
74.2788 44.8158 0
71.2458 46.5985 0.0283076
72.1654 42.086 0.0266649
74.9194 39.9526 0
75 37.5 2
72.4019 39.802 2
71.7787 44.3516 2
69.7741 41.7851 2
70.5705 48.8123 2
68.8527 46.0001 2
72.4862 37.5129 3.97406
70.017 39.6567 3.96767
69.3875 43.8992 3.96746
67.3525 41.4731 3.97661
68.1843 48.0868 3.96502
66.4354 45.3839 3.97647
74.9197 35.0474 0
74.2794 30.1841 0
72.1821 32.9447 0.0266282
71.275 28.4324 0.0285707
65.694 12.7746 0
65.3166 16.104 0.031674
69.8108 24.0586 0.0296788
68.2779 26.9713 0.0360368
66.6702 22.9621 0.0377592
64.6026 19.2333 0.0417863
63.6297 22.1341 0.0338474
72.4098 35.225 2
71.8001 30.6784 2
69.8107 33.2769 2
68.9148 29.0541 2
64.0165 10.9835 2
63.8832 14.3382 2
63.4203 17.4834 2
67.5344 24.9367 2
65.9389 27.7048 2
62.6629 20.4253 2
64.4899 23.9219 2
61.679 23.1098 2
60.6805 11.111 2
57.5984 11.4921 2
70.0315 35.3971 3.96716
69.4252 31.161 3.96583
67.42 33.62 3.97658
66.5217 29.6796 3.97584
65.264 25.7796 3.97262
63.6913 28.3738 3.97537
62.3336 12.661 3.96653
62.4255 24.7935 3.9745
62.1651 15.8154 3.95347
61.5653 18.8011 3.95944
60.8208 21.5174 3.96929
59.8749 23.9583 3.97411
59.2339 12.828 3.96297
55.8683 10.2775 3.97043
56.3742 13.2073 3.96184
69.764 50.9903 0.0296093
62.2254 65.694 0
58.8883 65.4079 0.0272448
67.7774 55.1692 0.03002
66.549 52.1789 0.037013
62.3288 62.4223 0.0339559
62.1721 59.3729 0.0472992
64.5591 55.9952 0.0406826
61.6065 56.5771 0.0386848
60.6662 63.9643 2
57.0238 66.7249 2
57.5452 63.6474 2
67.4155 50.15 2
65.597 54.1385 2
64.2488 51.2903 2
60.7496 60.8992 2
62.5788 54.9672 2
60.4499 58.0461 2
59.9932 55.6241 2
55.0655 67.9291 3.98147
59.2098 62.3139 3.9689
55.7867 64.8556 3.96944
56.3063 62.0054 3.98094
65.0421 49.324 3.97336
63.4294 53.1912 3.96751
61.9628 50.4879 3.9737
59.2156 59.4608 3.95355
60.6909 54.1447 3.97162
58.9257 56.8294 3.96032
58.8055 54.9792 3.9711
48.0969 68.5667 3.9783
50.9439 69.9299 3.9853
54.0858 71.1327 4
56.25 69.976 2
58.3339 68.6801 0
57.0557 8.33683 3.9796
60.3285 7.74928 4
58.9195 9.66953 2
62.2255 9.30602 2
70.571 48.8144 0.0289563
71.7793 44.3532 0.0272864
68.8492 46.0007 0.0336051
69.7721 41.7856 0.0323046
72.4026 39.8028 0.0257923
75 37.5 0
72.4849 37.5124 2
70.0197 39.6565 2
69.3889 43.8986 2
67.3496 41.4726 2
68.1847 48.0857 2
66.4316 45.3825 2
70.105 37.5238 3.9675
67.6002 39.5027 3.97654
66.9637 43.4301 3.97656
65.1323 41.1735 3.9763
65.7837 47.347 3.97524
64.1864 44.7652 3.97575
72.4105 35.2254 0.0258157
71.801 30.6777 0.0272226
69.8077 33.2766 0.0331648
68.9104 29.0538 0.0350712
64.0165 10.9835 0
63.8814 14.3312 0.0352435
63.4114 17.4871 0.0447947
67.5316 24.936 0.0366363
65.9413 27.7036 0.0253985
64.4909 23.9211 0.0306967
62.6568 20.4268 0.0369319
61.6789 23.1089 0.0270716
60.6781 11.1056 0.0286269
57.6011 11.503 0.0369126
70.0342 35.3972 2
69.4284 31.1613 2
67.4178 33.6205 2
66.5185 29.6808 2
62.336 12.6681 2
62.1659 15.8153 2
61.5752 18.7988 2
65.2622 25.7807 2
63.6901 28.3742 2
60.8211 21.5184 2
62.4251 24.7945 2
59.8731 23.9602 2
59.2326 12.8253 2
56.369 13.1982 2
55.868 10.283 2
67.6423 35.564 3.97665
67.0217 31.6658 3.97656
65.2902 33.9699 3.97645
64.2119 30.2862 3.97564
63.0938 26.5562 3.97466
61.6394 28.9392 3.97509
60.7552 14.2628 3.95593
60.4624 25.5552 3.97436
60.4066 17.2438 3.95542
59.8209 20.008 3.96427
59.124 22.5001 3.97195
58.3104 24.6081 3.97404
54.0372 9.1555 3.98859
57.8441 14.426 3.95183
54.7733 12.1067 3.97576
55.227 14.7834 3.95154
67.4141 50.151 0.0358313
57.0199 66.7304 0.0236137
60.662 63.9712 0.028829
57.5408 63.6383 0.0329112
65.5982 54.1395 0.0389057
64.2503 51.291 0.029698
60.7581 60.8984 0.0412018
60.4549 58.0472 0.0438006
62.5755 54.9661 0.0347731
59.9952 55.6246 0.0326513
55.0702 67.9239 2
59.207 62.3194 2
55.7909 64.8508 2
56.3029 62.0081 2
65.0397 49.3229 2
63.4293 53.1911 2
61.962 50.4875 2
59.2412 59.4696 2
60.6897 54.1443 2
58.9333 56.8316 2
58.8142 54.981 2
53.0374 68.9961 3.98215
53.954 65.983 3.97009
57.8362 60.7937 3.95315
54.6554 63.1069 3.96537
55.1631 60.5168 3.97578
62.7033 48.5145 3.97397
61.3021 52.4073 3.97322
59.613 49.786 3.97288
57.772 58.1069 3.95641
58.8302 53.7295 3.97249
57.6106 55.5726 3.96309
50.1022 67.8446 3.97428
47.4522 66.5579 3.9743
46.0517 69.1479 3.98087
48.101 68.5678 2
48.7978 70.7209 3.98733
50.9489 69.9265 2
51.8506 72.1454 4
54.0858 71.1327 2
56.25 69.9759 0
55.1012 7.14059 3.99271
58.3339 6.31992 4
57.0589 8.34257 2
60.3286 7.74926 2
58.9174 9.66431 0.0287204
62.2254 9.30607 0
68.1843 48.0868 0.0349756
69.3875 43.8992 0.0325381
66.4354 45.3839 0.0235318
67.3525 41.4731 0.0233892
70.017 39.6567 0.0323276
72.4862 37.5129 0.0259415
70.1085 37.5237 2
67.5973 39.5024 2
66.9615 43.4289 2
65.132 41.1734 2
65.781 47.3458 2
64.1857 44.7651 2
67.7034 37.5259 3.9765
65.3743 39.3538 3.97645
64.7368 42.9643 3.97613
63.1811 40.879 3.9763
63.4755 46.601 3.97491
62.1743 44.1064 3.97569
70.0315 35.3971 0.0328359
69.4252 31.161 0.0341739
67.42 33.62 0.0234217
66.5217 29.6796 0.0241589
62.3336 12.661 0.0334726
62.1651 15.8154 0.0465276
61.5653 18.8011 0.0405584
65.264 25.7796 0.0273834
63.6913 28.3738 0.0246299
62.4255 24.7935 0.0255029
60.8208 21.5174 0.0307124
59.8749 23.9583 0.0258894
59.2339 12.828 0.0370296
56.3742 13.2073 0.0381605
55.8683 10.2775 0.0295656
67.64 35.5644 2
67.0194 31.6669 2
65.289 33.9701 2
64.2113 30.2864 2
60.7531 14.2627 2
60.4001 17.2449 2
59.8198 20.0094 2
63.0927 26.5571 2
61.6394 28.9391 2
59.1245 22.5016 2
60.4621 25.5555 2
58.3059 24.6105 2
57.843 14.4159 2
55.2156 14.7662 2
54.0411 9.14966 2
54.7629 12.0998 2
65.473 35.6914 3.97648
64.7492 32.2191 3.97584
63.763 34.3008 3.97608
61.9654 30.7622 3.97541
61.0434 27.2582 3.97462
60.1074 29.3336 3.97552
59.1738 15.7747 3.95405
58.6059 26.0662 3.97469
58.758 18.5511 3.96027
58.2089 21.1105 3.9665
57.642 23.3888 3.97213
57.2313 24.9846 3.97502
52.1025 8.18412 3.96833
53.0589 11.062 3.97405
56.5262 15.8975 3.95623
53.7637 13.7958 3.96312
54.2122 16.1713 3.95642
55.0655 67.9291 0.0185254
65.0421 49.324 0.026636
55.7867 64.8556 0.0305601
59.2098 62.3139 0.0311046
56.3063 62.0054 0.0190603
63.4294 53.1912 0.0324854
61.9628 50.4879 0.026299
59.2156 59.4608 0.0464501
58.9257 56.8294 0.0396812
60.6909 54.1447 0.0283809
58.8055 54.9792 0.0288991
53.0426 68.9928 2
53.9582 65.9822 2
57.8366 60.802 2
54.653 63.1056 2
55.1603 60.5152 2
62.7027 48.5141 2
61.3016 52.4071 2
59.6132 49.7857 2
57.7783 58.1103 2
58.8344 53.7298 2
57.6075 55.5709 2
52.0605 66.9799 3.97312
52.929 64.1435 3.968
56.5125 59.3615 3.95167
53.6209 61.4786 3.96572
[...]
POINT_DATA 3012
SCALARS rho_c_phif_kappa float 4
LOOKUP_TABLE default
1000 0 1.00253 0.274983
1000 0 1.00201 0.275324
1000 0 1.00253 0.27529
1000 0 1.00252 0.275608
1000 0 1.00253 0.275175
1000 0 1.00253 0.274862
1012.26 1.34007e-08 1.003 0.27262
1000 0 1.00201 0.275305
1000 0 1.00201 0.276371
1000 0 1.00201 0.275885
1000 0 1.00253 0.274765
1012.2 1.31175e-08 1.00325 0.272195
1000 0 1.00251 0.276279
1000 0 1.00252 0.277201
1000 0 1.00253 0.275589
1000 0 1.00252 0.276284
1000 0 1.00253 0.275075
1000 0 1.00252 0.275614
1012.08 1.34482e-08 1.003 0.272466
1000 0 1.00201 0.276271
1000 0 1.00252 0.275748
1000 0 1.00252 0.275403
1012.22 1.3579e-08 1.00299 0.274582
1012.24 1.3471e-08 1.00299 0.273365
1000 0 1.00253 0.274828
1012.28 1.33346e-08 1.003 0.271806
1013.8 1.57612e-08 1.00349 0.265619
1000 0 1.00201 0.275305
1000 0 1.00227 0.275871
1000 0 1.00227 0.275444
1000 0 1.00201 0.275363
1012.13 1.31738e-08 1.00325 0.272216
1000 0 1.00252 0.275547
1000 0 1.00252 0.274995
1012.26 1.34986e-08 1.00299 0.272727
1000 0 1.00202 0.276218
1012.19 1.32266e-08 1.00299 0.272168
1012.25 1.30701e-08 1.00326 0.272281
1013.79 1.56767e-08 1.0035 0.263422
1000 0 1.00202 0.27664
1000 0 1.00201 0.276293
1000 0 1.00226 0.276673
1000 0 1.00201 0.276359
1000 0 1.00252 0.277373
1012.18 1.36147e-08 1.00323 0.274791
1000 0 1.00201 0.277004
1012.26 1.365e-08 1.00298 0.274151
1000 0 1.00251 0.27698
1000 0 1.00252 0.276055
1000 0 1.00253 0.275278
1012.26 1.34007e-08 1.003 0.272339
1000 0 1.00226 0.276667
1000 0 1.00252 0.276485
1000 0 1.00253 0.274982
1000 0 1.00252 0.275976
1011.95 1.36215e-08 1.00299 0.274244
1012.16 1.33852e-08 1.003 0.271656
1012.01 1.3515e-08 1.00299 0.273126
1013.81 1.57561e-08 1.00349 0.265487
1000 0 1.00201 0.276354
1000 0 1.00252 0.275865
1012.16 1.35826e-08 1.00297 0.275247
1012.21 1.36021e-08 1.00299 0.274918
1012.23 1.35343e-08 1.00299 0.274045
1013.77 1.57869e-08 1.00347 0.269142
1013.79 1.57722e-08 1.00348 0.266276
1000 0 1.00254 0.274969
1012.34 1.32811e-08 1.00301 0.271141
1013.81 1.57496e-08 1.00349 0.264254
1013.74 1.57671e-08 1.00348 0.257753
1000 0 1.00201 0.275555
1000 0 1.00201 0.275601
1000 0 1.00201 0.275284
1012.2 1.31175e-08 1.00325 0.272234
1000 0 1.00201 0.275767
1000 0 1.00201 0.275394
1012.04 1.35426e-08 1.00324 0.272957
1000 0 1.00228 0.275732
1012.07 1.3278e-08 1.00325 0.272314
1012.24 1.31335e-08 1.00313 0.272227
1013.8 1.56777e-08 1.0035 0.26347
1000 0 1.00201 0.276149
1012.59 1.31378e-08 1.0033 0.273602
1012.28 1.35918e-08 1.00324 0.273443
1012.23 1.3367e-08 1.00325 0.272559
1013.79 1.57805e-08 1.00349 0.266059
1012.34 1.30599e-08 1.00301 0.272342
1013.79 1.57108e-08 1.00349 0.26389
1013.83 1.56669e-08 1.00351 0.264011
1013.77 1.57963e-08 1.00349 0.256805
1000 0 1.00202 0.277064
1000 0 1.00202 0.276889
1000 0 1.00201 0.276058
1000 0 1.00201 0.276269
1000 0 1.00201 0.276338
1000 0 1.00226 0.276792
1011.83 1.36544e-08 1.0031 0.274722
1000 0 1.00226 0.276459
1012.01 1.36923e-08 1.00311 0.274386
1000 0 1.00201 0.276357
1012.16 1.35873e-08 1.00322 0.275017
1012.24 1.36375e-08 1.00298 0.274393
1013.75 1.57818e-08 1.00348 0.271156
1012.27 1.36407e-08 1.00298 0.273862
1013.78 1.58012e-08 1.00348 0.270188
1000 0 1.00251 0.276238
1000 0 1.00251 0.277257
1000 0 1.00254 0.275126
1000 0 1.00252 0.276551
1012.22 1.3579e-08 1.00299 0.273918
1012.24 1.3471e-08 1.00299 0.2729
1012.28 1.33346e-08 1.003 0.271383
1013.8 1.57612e-08 1.00349 0.265325
1000 0 1.00201 0.276321
1000 0 1.00252 0.276599
1011.82 1.36231e-08 1.0031 0.274807
1011.95 1.36449e-08 1.00299 0.274586
1000 0 1.00228 0.274932
1012.27 1.33391e-08 1.00301 0.27141
1011.98 1.35769e-08 1.00299 0.273736
1013.79 1.57795e-08 1.00347 0.269057
1013.82 1.57481e-08 1.00349 0.263796
1013.81 1.5766e-08 1.00348 0.266455
1013.74 1.57686e-08 1.00348 0.257782
1012.13 1.35727e-08 1.00322 0.275046
1012.21 1.36011e-08 1.00299 0.275062
1013.75 1.57724e-08 1.00346 0.27099
1013.77 1.57879e-08 1.00347 0.269909
1013.78 1.57818e-08 1.00347 0.2677
1013.73 1.57475e-08 1.00347 0.263979
1000 0 1.00202 0.27571
1013.73 1.57567e-08 1.00347 0.259089
1012.39 1.32462e-08 1.00328 0.271583
1013.83 1.574e-08 1.0035 0.262266
1013.75 1.57809e-08 1.00348 0.256516
1013.67 1.56794e-08 1.00347 0.254515
1012.54 1.32275e-08 1.0033 0.27238
1013.98 1.58008e-08 1.00352 0.269321
1000 0 1.00201 0.275746
1000 0 1.00201 0.27539
1012.26 1.34986e-08 1.00324 0.272971
1000 0 1.00201 0.276033
1012.25 1.30701e-08 1.00326 0.272206
1012.19 1.32266e-08 1.00325 0.272343
1013.79 1.56767e-08 1.0035 0.263547
1000 0 1.00202 0.276362
1012.67 1.31898e-08 1.0033 0.27388
1012.04 1.36338e-08 1.00311 0.273351
1012.04 1.34141e-08 1.00312 0.27247
1013.81 1.57743e-08 1.00349 0.266074
1012.35 1.31296e-08 1.00327 0.272328
1013.8 1.57097e-08 1.00349 0.264009
1013.83 1.56668e-08 1.00351 0.264306
1013.77 1.57989e-08 1.00348 0.256425
1012.42 1.30942e-08 1.00329 0.272777
1012.7 1.31857e-08 1.00331 0.274494
1014.01 1.57792e-08 1.00353 0.271416
1013.79 1.5799e-08 1.00349 0.267453
1013.79 1.57495e-08 1.00349 0.264914
1013.72 1.57415e-08 1.00347 0.258841
1013.88 1.57025e-08 1.00351 0.266046
1013.75 1.57757e-08 1.00348 0.255801
1013.78 1.58105e-08 1.00349 0.25673
1013.7 1.57212e-08 1.00348 0.254033
1000 0 1.00202 0.277295
1000 0 1.00202 0.277189
1000 0 1.00202 0.277046
1012.65 1.32499e-08 1.00331 0.27344
1000 0 1.00202 0.276184
1000 0 1.00201 0.275921
1000 0 1.00201 0.276183
1012.26 1.365e-08 1.00324 0.274657
1012.18 1.36147e-08 1.00323 0.275029
1000 0 1.00201 0.276357
1000 0 1.00201 0.276363
1012.05 1.36245e-08 1.00322 0.275038
1012.14 1.36766e-08 1.00311 0.274634
1013.79 1.5775e-08 1.00348 0.271163
1012 1.36822e-08 1.00324 0.27416
1013.8 1.57929e-08 1.00348 0.270117
1012.12 1.35658e-08 1.00322 0.275044
1013.75 1.57711e-08 1.00348 0.271491
1013.77 1.57907e-08 1.00348 0.270759
1013.73 1.57445e-08 1.00347 0.26815
1013.78 1.58046e-08 1.00348 0.268957
1013.72 1.57436e-08 1.00347 0.265501
1000 0 1.00201 0.276342
1000 0 1.00252 0.277388
1012.16 1.35826e-08 1.00324 0.274776
1012.21 1.36021e-08 1.00299 0.274263
1000 0 1.00202 0.275629
1012.34 1.32811e-08 1.00301 0.271734
1012.23 1.35343e-08 1.00299 0.273441
1013.77 1.57869e-08 1.00347 0.26895
1013.79 1.57722e-08 1.00348 0.266619
1013.81 1.57496e-08 1.00349 0.263493
1013.74 1.57671e-08 1.00348 0.257817
1012 1.36099e-08 1.00322 0.275036
1012.11 1.36408e-08 1.00299 0.274763
1013.78 1.57657e-08 1.00347 0.270855
1013.79 1.578e-08 1.00347 0.270004
1000 0 1.00202 0.275555
1012.37 1.33143e-08 1.00314 0.271771
1013.84 1.57364e-08 1.0035 0.262469
1013.8 1.57748e-08 1.00347 0.267605
1013.72 1.57484e-08 1.00347 0.263648
1013.75 1.57813e-08 1.00348 0.256562
1013.73 1.57579e-08 1.00348 0.259358
1013.67 1.56792e-08 1.00347 0.254562
1012.59 1.32822e-08 1.0033 0.272324
1013.97 1.57895e-08 1.00352 0.269304
1013.74 1.57671e-08 1.00348 0.271495
1013.77 1.57826e-08 1.00347 0.270445
1013.73 1.57489e-08 1.00347 0.267907
1013.72 1.57455e-08 1.00347 0.265009
1013.73 1.57508e-08 1.00347 0.26132
1013.65 1.56622e-08 1.00346 0.260569
1012.46 1.32255e-08 1.00328 0.271693
1013.66 1.567e-08 1.00346 0.255978
1013.87 1.57395e-08 1.00351 0.263681
1013.76 1.57893e-08 1.00348 0.254797
1013.68 1.56933e-08 1.00347 0.253461
1013.65 1.56604e-08 1.00346 0.253284
1013.95 1.57758e-08 1.00352 0.267715
1014.03 1.58377e-08 1.00353 0.270774
1013.85 1.59099e-08 1.00351 0.265865
1012.28 1.35918e-08 1.00324 0.273532
1000 0 1.00202 0.276666
1012.59 1.31378e-08 1.0033 0.274296
1012.23 1.3367e-08 1.00324 0.27257
1013.79 1.57805e-08 1.00349 0.266091
1012.34 1.30599e-08 1.00327 0.272252
1013.83 1.56669e-08 1.0035 0.264548
1013.79 1.57108e-08 1.00349 0.264162
1013.77 1.57963e-08 1.00348 0.256024
1012.51 1.31455e-08 1.00329 0.272944
1012.78 1.32292e-08 1.00331 0.274811
1013.99 1.577e-08 1.00353 0.271521
1013.81 1.57924e-08 1.00349 0.267457
1013.81 1.57453e-08 1.00349 0.264985
1013.72 1.57431e-08 1.00347 0.258819
1013.9 1.57013e-08 1.00351 0.266501
1013.75 1.57769e-08 1.00348 0.256007
1013.78 1.58105e-08 1.00349 0.256647
1013.7 1.57218e-08 1.00348 0.253546
1012.85 1.32379e-08 1.00333 0.275243
1013.94 1.57432e-08 1.00352 0.26939
1014.04 1.58058e-08 1.00353 0.272601
1013.88 1.5935e-08 1.00351 0.268464
1013.72 1.57297e-08 1.00347 0.260712
1013.74 1.57577e-08 1.00348 0.257138
1013.66 1.5683e-08 1.00346 0.255301
1013.8 1.58388e-08 1.0035 0.259417
1013.67 1.5689e-08 1.00347 0.251546
1013.7 1.57176e-08 1.00348 0.25279
1013.69 1.57115e-08 1.00347 0.252899
1014.08 1.5866e-08 1.00353 0.275874
1013.05 1.33279e-08 1.00335 0.275669
1000 0 1.00202 0.277398
1000 0 1.00202 0.277376
1000 0 1.00202 0.277308
1012.77 1.33004e-08 1.00332 0.274094
1000 0 1.00202 0.276602
1012.74 1.33045e-08 1.00331 0.273084
1000 0 1.00202 0.275998
1012.27 1.36407e-08 1.00324 0.274156
1012.24 1.36375e-08 1.00323 0.274913
1013.78 1.58012e-08 1.00348 0.270042
1013.75 1.57818e-08 1.00348 0.271139
1012.16 1.35873e-08 1.00322 0.275063
1000 0 1.00201 0.276355
1011.71 1.3606e-08 1.00322 0.275039
1013.75 1.57649e-08 1.00348 0.271488
1013.77 1.57841e-08 1.00348 0.270715
1013.72 1.57452e-08 1.00347 0.26813
1013.81 1.57979e-08 1.00348 0.268955
1013.72 1.57446e-08 1.00347 0.265571
1013.73 1.5766e-08 1.00348 0.2716
1013.72 1.57402e-08 1.00347 0.268633
1013.72 1.57459e-08 1.00347 0.267275
1013.66 1.56896e-08 1.00346 0.266172
1013.72 1.57377e-08 1.00347 0.263203
1013.66 1.56746e-08 1.00346 0.263201
1012.13 1.35727e-08 1.00322 0.275015
1012.21 1.36011e-08 1.00299 0.274414
1013.75 1.57724e-08 1.00348 0.270743
1013.77 1.57879e-08 1.00348 0.270045
1000 0 1.00202 0.275375
1012.39 1.32462e-08 1.00301 0.271585
1013.83 1.574e-08 1.0035 0.26271
1013.78 1.57818e-08 1.00347 0.267489
1013.73 1.57475e-08 1.00347 0.263321
1013.73 1.57567e-08 1.00348 0.259629
1013.75 1.57809e-08 1.00348 0.25657
1013.67 1.56794e-08 1.00347 0.254592
1012.54 1.32275e-08 1.0033 0.27222
1013.98 1.58008e-08 1.00352 0.268958
1013.75 1.57611e-08 1.00348 0.271333
1013.77 1.57761e-08 1.00347 0.270487
1013.72 1.57496e-08 1.00347 0.267807
1013.72 1.57465e-08 1.00347 0.265311
1012.46 1.3289e-08 1.00328 0.271782
1013.87 1.57322e-08 1.00351 0.263384
1013.76 1.57926e-08 1.00348 0.254869
1013.73 1.57519e-08 1.00348 0.26147
1013.65 1.56618e-08 1.00346 0.260254
1013.68 1.56937e-08 1.00347 0.253267
1013.66 1.56698e-08 1.00346 0.256004
1013.65 1.56602e-08 1.00346 0.253018
1013.95 1.57749e-08 1.00352 0.267836
1013.85 1.59085e-08 1.0035 0.265737
1014.02 1.58386e-08 1.00353 0.270692
1013.73 1.57443e-08 1.00347 0.268752
1013.72 1.57455e-08 1.00347 0.266572
1013.66 1.56815e-08 1.00346 0.266183
1013.65 1.5663e-08 1.00346 0.262114
1013.65 1.56631e-08 1.00346 0.257514
1013.63 1.56413e-08 1.00346 0.257849
1013.91 1.57575e-08 1.00351 0.266061
1013.64 1.56488e-08 1.00346 0.253723
1013.77 1.58074e-08 1.00349 0.255414
1013.68 1.56972e-08 1.00347 0.249922
1013.66 1.56786e-08 1.00347 0.251565
1013.62 1.56075e-08 1.00346 0.251074
1014.05 1.58564e-08 1.00353 0.272663
1013.83 1.58758e-08 1.0035 0.262512
1013.87 1.59399e-08 1.00351 0.26917
1013.78 1.58238e-08 1.0035 0.261928
1013.79 1.5799e-08 1.00349 0.267465
1012.7 1.31857e-08 1.00331 0.274999
1012.42 1.30942e-08 1.00329 0.273132
1014.01 1.57792e-08 1.00352 0.271622
1013.79 1.57495e-08 1.00349 0.26505
1013.72 1.57415e-08 1.00347 0.258797
1013.88 1.57025e-08 1.00351 0.267074
1013.78 1.58105e-08 1.00349 0.256649
1013.75 1.57757e-08 1.00348 0.256202
1013.7 1.57212e-08 1.00347 0.253131
1012.88 1.32747e-08 1.00333 0.275411
1013.94 1.57423e-08 1.00352 0.269658
1014.02 1.58032e-08 1.00353 0.272725
1013.88 1.5938e-08 1.00351 0.268649
1013.72 1.57301e-08 1.00347 0.260699
1013.74 1.57593e-08 1.00348 0.257126
1013.66 1.56821e-08 1.00346 0.255304
1013.81 1.58424e-08 1.0035 0.25945
1013.67 1.56897e-08 1.00347 0.251869
1013.7 1.57183e-08 1.00348 0.252522
1013.69 1.57126e-08 1.00347 0.253592
1012.94 1.32823e-08 1.00334 0.275557
1014.05 1.58174e-08 1.00353 0.273928
1013.85 1.58904e-08 1.0035 0.263951
1013.88 1.59505e-08 1.00351 0.270822
1013.81 1.58562e-08 1.0035 0.264839
1013.65 1.57074e-08 1.00346 0.257127
1013.66 1.56711e-08 1.00347 0.252856
1013.63 1.56641e-08 1.00346 0.252004
1013.71 1.57328e-08 1.00349 0.252298
1013.66 1.57063e-08 1.00347 0.248879
1013.67 1.57115e-08 1.00347 0.25011
1014.07 1.58456e-08 1.00353 0.275629
1013.89 1.59868e-08 1.00351 0.274539
1014.09 1.58886e-08 1.00353 0.276222
1014.08 1.58661e-08 1.00353 0.275951
1013.13 1.3381e-08 1.00307 0.276097
1013.06 1.33562e-08 1.00321 0.27606
1000 0 1.00258 0.276706
1000 0 1.00202 0.277415
1000 0 1.00202 0.277399
1012.94 1.33754e-08 1.00334 0.274933
1000 0 1.00202 0.277073
1012.87 1.33485e-08 1.00332 0.27396
1000 0 1.00202 0.276433
1012.65 1.32499e-08 1.00331 0.272913
1000 0 1.00202 0.275835
1013.78 1.58046e-08 1.00348 0.268946
1013.77 1.57907e-08 1.00348 0.270708
1013.72 1.57436e-08 1.00347 0.265547
1013.73 1.57445e-08 1.00347 0.268116
1013.75 1.57711e-08 1.00348 0.271479
1012.12 1.35658e-08 1.00322 0.275022
1013.77 1.57592e-08 1.00348 0.271601
1013.72 1.57409e-08 1.00347 0.268631
1013.72 1.57468e-08 1.00347 0.267151
1013.66 1.56895e-08 1.00346 0.266118
1013.72 1.57387e-08 1.00347 0.263174
1013.66 1.56745e-08 1.00346 0.263177
1013.73 1.57391e-08 1.00347 0.268769
1013.67 1.5703e-08 1.00346 0.266944
1013.66 1.56803e-08 1.00346 0.265354
1013.65 1.56841e-08 1.00346 0.265406
1013.65 1.56719e-08 1.00346 0.259518
1013.64 1.56478e-08 1.00346 0.260751
1013.74 1.57671e-08 1.00347 0.271182
1013.77 1.57826e-08 1.00347 0.270617
1013.73 1.57489e-08 1.00347 0.267627
1013.72 1.57455e-08 1.00347 0.265649
1012.46 1.32255e-08 1.00328 0.271886
1013.87 1.57395e-08 1.00351 0.262952
1013.76 1.57893e-08 1.00348 0.254914
1013.73 1.57508e-08 1.00348 0.261631
1013.65 1.56622e-08 1.00346 0.259935
1013.66 1.567e-08 1.00346 0.25603
1013.68 1.56933e-08 1.00347 0.253124
1013.65 1.56604e-08 1.00346 0.252831
1013.95 1.57758e-08 1.00352 0.268022
1013.85 1.59099e-08 1.0035 0.265889
1014.03 1.58377e-08 1.00353 0.270828
1013.73 1.57449e-08 1.00347 0.268622
1013.72 1.57463e-08 1.00347 0.266689
1013.66 1.56812e-08 1.00346 0.265967
1013.65 1.56627e-08 1.00346 0.26241
1013.92 1.57549e-08 1.00351 0.265619
1013.77 1.58091e-08 1.00349 0.255196
1013.68 1.56981e-08 1.00347 0.250135
1013.65 1.56628e-08 1.00346 0.257843
1013.63 1.56415e-08 1.00346 0.25758
1013.66 1.56786e-08 1.00347 0.251352
1013.64 1.56489e-08 1.00346 0.253733
1013.62 1.5607e-08 1.00346 0.251383
1013.83 1.58784e-08 1.0035 0.26215
1013.78 1.58238e-08 1.0035 0.261918
1014.04 1.58539e-08 1.00353 0.272578
1013.87 1.59406e-08 1.00351 0.269963
1013.67 1.57023e-08 1.00346 0.266876
1013.66 1.5671e-08 1.00346 0.264517
1013.64 1.56495e-08 1.00346 0.265338
1013.64 1.56541e-08 1.00346 0.259472
1013.64 1.56555e-08 1.00346 0.255349
1013.63 1.56215e-08 1.00345 0.255947
1013.8 1.58401e-08 1.00349 0.258308
1013.62 1.56028e-08 1.00346 0.25101
1013.69 1.57023e-08 1.00348 0.248746
1013.66 1.56944e-08 1.00347 0.247011
1013.63 1.56084e-08 1.00346 0.250193
1013.6 1.55321e-08 1.00346 0.249793
1014.07 1.58747e-08 1.00353 0.273548
1013.87 1.59469e-08 1.00351 0.270515
1013.75 1.57787e-08 1.00349 0.25738
1013.82 1.58658e-08 1.0035 0.266488
1013.76 1.57907e-08 1.00349 0.257929
1012.85 1.32379e-08 1.00333 0.275652
1013.72 1.57297e-08 1.00347 0.260697
1014.04 1.58058e-08 1.00353 0.272788
1013.94 1.57432e-08 1.00352 0.269913
1013.88 1.5935e-08 1.00351 0.268946
1013.74 1.57577e-08 1.00348 0.257105
1013.66 1.5683e-08 1.00346 0.255305
1013.8 1.58388e-08 1.0035 0.259401
1013.7 1.57176e-08 1.00348 0.251961
1013.67 1.5689e-08 1.00347 0.252228
1013.69 1.57115e-08 1.00347 0.253956
1012.97 1.3311e-08 1.00334 0.275662
1014.05 1.58171e-08 1.00353 0.274265
1013.85 1.58906e-08 1.0035 0.264558
1013.89 1.5952e-08 1.00351 0.271151
1013.81 1.5857e-08 1.0035 0.2641
1013.65 1.57115e-08 1.00346 0.257074
1013.66 1.56706e-08 1.00347 0.252873
1013.63 1.56681e-08 1.00346 0.251969
1013.71 1.5735e-08 1.00349 0.252378
1013.66 1.57055e-08 1.00347 0.249255
1013.67 1.5712e-08 1.00347 0.249934
1014.06 1.5832e-08 1.00353 0.275022
1013.89 1.59726e-08 1.00352 0.271811
1013.76 1.5794e-08 1.00349 0.257664
1013.83 1.58811e-08 1.00351 0.268106
1013.79 1.5828e-08 1.0035 0.260075
1013.61 1.55204e-08 1.00346 0.254793
1013.65 1.57381e-08 1.00346 0.249241
1013.54 1.50579e-08 1.00345 0.248573
1013.68 1.57314e-08 1.00348 0.247309
1013.64 1.56553e-08 1.00347 0.246755
1014.07 1.58465e-08 1.00353 0.275658
1013.89 1.59817e-08 1.00351 0.274348
1013.89 1.5987e-08 1.00351 0.274553
1013.87 1.59335e-08 1.00352 0.273008
1013.89 1.59933e-08 1.00352 0.274707
1014.1 1.59117e-08 1.00353 0.276358
1014.09 1.58861e-08 1.00353 0.276171
1013.23 1.34445e-08 1.00308 0.276179
1014.08 1.5866e-08 1.00353 0.275934
1013.15 1.33976e-08 1.00308 0.276361
1000 0 1.00259 0.276657
1013.05 1.33279e-08 1.00307 0.276303
1000 0 1.0023 0.276797
1000 0 1.00202 0.277464
1013.07 1.34497e-08 1.00335 0.27558
1013 1.34003e-08 1.00334 0.274684
1000 0 1.00202 0.277326
1000 0 1.00202 0.276835
1012.77 1.33004e-08 1.00332 0.273659
1000 0 1.00202 0.276257
1013.72 1.57377e-08 1.00347 0.263138
1013.72 1.57459e-08 1.00347 0.267122
1013.66 1.56746e-08 1.00346 0.26318
1013.66 1.56896e-08 1.00346 0.266063
1013.72 1.57402e-08 1.00347 0.268629
1013.73 1.5766e-08 1.00348 0.271593
1013.72 1.57402e-08 1.00347 0.268771
1013.67 1.57026e-08 1.00346 0.266981
1013.66 1.56796e-08 1.00346 0.265334
1013.65 1.56835e-08 1.00346 0.265269
1013.65 1.56714e-08 1.00346 0.259476
1013.64 1.56473e-08 1.00346 0.260909
1013.67 1.57074e-08 1.00346 0.267189
1013.66 1.57386e-08 1.00346 0.266234
1013.64 1.56889e-08 1.00346 0.263825
1013.58 1.5348e-08 1.00346 0.264566
1013.63 1.56553e-08 1.00346 0.258042
1013.62 1.55682e-08 1.00345 0.259997
1013.73 1.57443e-08 1.00347 0.268504
1013.72 1.57455e-08 1.00347 0.266665
1013.66 1.56815e-08 1.00346 0.265795
1013.65 1.5663e-08 1.00346 0.262713
1013.91 1.57575e-08 1.00351 0.265268
1013.77 1.58074e-08 1.00349 0.255079
1013.68 1.56972e-08 1.00347 0.250324
1013.65 1.56631e-08 1.00346 0.258165
1013.63 1.56413e-08 1.00346 0.257328
1013.64 1.56488e-08 1.00346 0.253749
1013.66 1.56786e-08 1.00347 0.250945
1013.62 1.56075e-08 1.00346 0.251436
1013.83 1.58758e-08 1.0035 0.261594
1013.78 1.58238e-08 1.0035 0.261835
1014.05 1.58564e-08 1.00353 0.272447
1013.87 1.59399e-08 1.00351 0.269952
1013.67 1.57019e-08 1.00346 0.266878
1013.65 1.56706e-08 1.00346 0.264433
1013.64 1.56493e-08 1.00346 0.265262
1013.64 1.5654e-08 1.00346 0.259651
1013.8 1.58419e-08 1.0035 0.258434
1013.69 1.57022e-08 1.00348 0.249058
1013.66 1.56941e-08 1.00347 0.246588
1013.64 1.56556e-08 1.00346 0.255556
1013.63 1.56212e-08 1.00345 0.255883
1013.63 1.56077e-08 1.00346 0.249816
1013.62 1.56029e-08 1.00346 0.250966
1013.6 1.55311e-08 1.00346 0.249931
1013.75 1.57832e-08 1.00349 0.257068
1013.76 1.57914e-08 1.00349 0.257396
1013.82 1.58696e-08 1.0035 0.266585
1014.06 1.58786e-08 1.00353 0.273618
1013.87 1.59489e-08 1.00351 0.270499
1013.65 1.57114e-08 1.00346 0.265946
1013.65 1.56508e-08 1.00346 0.263467
1013.62 1.55635e-08 1.00345 0.256533
1013.6 1.55077e-08 1.00345 0.253326
1013.71 1.5733e-08 1.00349 0.252342
1013.62 1.556e-08 1.00345 0.246697
1013.66 1.57038e-08 1.00347 0.244148
1013.62 1.55948e-08 1.00346 0.243474
1013.58 1.53873e-08 1.00346 0.248832
1014.09 1.59089e-08 1.00353 0.274608
1013.87 1.59542e-08 1.00352 0.270877
1013.83 1.58921e-08 1.00351 0.269087
1013.73 1.57616e-08 1.00349 0.253199
1013.8 1.58358e-08 1.0035 0.26151
1013.74 1.57554e-08 1.00349 0.254179
1012.94 1.32823e-08 1.00334 0.275734
1014.05 1.58174e-08 1.00353 0.274544
1013.65 1.57074e-08 1.00346 0.257017
1013.88 1.59505e-08 1.00351 0.271668
1013.85 1.58904e-08 1.00351 0.265092
1013.81 1.58562e-08 1.0035 0.263365
1013.66 1.56711e-08 1.00347 0.252895
1013.63 1.56641e-08 1.00346 0.25194
1013.71 1.57328e-08 1.00349 0.25257
1013.67 1.57115e-08 1.00347 0.250064
1013.66 1.57063e-08 1.00347 0.249603
1014.06 1.58326e-08 1.00353 0.275141
1013.9 1.59744e-08 1.00351 0.272612
1013.76 1.57949e-08 1.00349 0.257639
1013.83 1.58832e-08 1.00351 0.268187
1013.79 1.58349e-08 1.0035 0.259818
1013.61 1.55004e-08 1.00346 0.254775
1013.65 1.57416e-08 1.00346 0.249261
1013.54 1.50388e-08 1.00345 0.248518
1013.68 1.57328e-08 1.00348 0.247068