# vtk DataFile Version 2.0
Wound Healing Simulation
ASCII
DATASET UNSTRUCTURED_GRID
POINTS 3012 float
69.9759 18.75 4
67.2507 60.3285 4
69.976 18.75 2
73.0099 25.446 4
71.1327 20.9142 4
68.6801 16.6661 4
67.8225 19.9264 3.97571
67.2507 60.3286 2
71.1327 54.0858 4
68.6801 58.3339 4
65.6939 62.2254 4
65.3095 58.9996 3.97484
74.6784 42.3946 4
73.7221 47.2057 4
69.9759 18.75 0
73.0099 25.446 2
68.6801 16.6661 2
71.1327 20.9142 2
67.8232 19.93 2
74.6792 32.6053 4
73.7222 27.7943 4
72.1454 23.1494 4
70.6119 26.2216 3.97554
68.8829 21.9581 3.97608
67.2507 14.6715 4
66.6339 17.9731 3.97447
65.7884 21.0289 3.9643
67.2507 60.3285 0
71.1327 54.0858 2
68.6801 58.3339 2
65.694 62.2255 2
65.3106 58.9948 2
72.1454 51.8506 4
69.9759 56.25 4
68.8335 53.1134 3.9755
64.0165 64.0165 4
66.6078 57.1327 3.97528
63.8826 60.7636 3.97447
63.4932 57.7643 3.96592
60.3285 67.2507 4
74.6792 42.3947 2
73.7222 47.2057 2
74.9194 39.9526 4
74.2788 44.8158 4
72.1666 42.0857 3.97685
73.0099 49.554 4
71.2471 46.598 3.97538
73.0099 25.446 0
71.1327 20.9142 0
68.6801 16.6661 0
67.8225 19.9264 0.0242931
74.6792 32.6053 2
73.7222 27.7943 2
67.2508 14.6715 2
72.1455 23.1494 2
70.6116 26.2222 2
66.6349 17.9776 2
68.8831 21.9605 2
65.7859 21.0306 2
74.9197 35.0474 4
74.2794 30.1841 4
72.1833 32.9442 3.97709
71.2763 28.4322 3.97576
69.813 24.0598 3.97592
68.3404 26.9544 3.96459
66.7541 22.9362 3.96418
65.694 12.7746 4
65.3202 16.1056 3.97327
64.7052 19.2005 3.96455
63.8068 22.0668 3.96439
71.1327 54.0858 0
65.6939 62.2254 0
68.6801 58.3339 0
65.3095 58.9996 0.0251611
72.1455 51.8506 2
69.9759 56.25 2
68.8336 53.1109 2
64.0165 64.0165 2
66.6086 57.1284 2
63.8842 60.7583 2
63.4916 57.764 2
62.2254 65.694 4
58.8919 65.413 3.98388
69.7662 50.9892 3.97523
67.7807 55.1671 3.97564
66.6391 52.2069 3.9643
62.3327 62.4244 3.97752
64.6527 56.0271 3.96536
62.1961 59.3918 3.96591
61.7783 56.6553 3.96195
58.3339 68.6801 4
60.3285 67.2508 2
73.7221 47.2057 0
74.6784 42.3946 0
74.9197 39.9526 2
74.2794 44.8159 2
72.1659 42.0854 2
73.0099 49.554 2
71.2467 46.5976 2
75 37.5 4
72.404 39.8025 3.97779
71.7807 44.3529 3.97648
69.7991 41.7899 3.96709
70.5727 48.8136 3.97496
68.906 46.0141 3.96553
74.6792 32.6053 0
73.7222 27.7943 0
67.2507 14.6715 0
72.1454 23.1494 0
70.6119 26.2216 0.0244645
68.8829 21.9581 0.0239196
66.6339 17.9731 0.0255268
65.7884 21.0289 0.0357037
74.9197 35.0474 2
74.2794 30.1841 2
72.1826 32.9446 2
71.2759 28.4327 2
65.694 12.7745 2
65.3216 16.1109 2
69.8129 24.0611 2
68.3401 26.9555 2
64.7032 19.2016 2
66.7538 22.9376 2
63.806 22.0675 2
72.4118 35.2249 3.97784
71.8022 30.6772 3.97674
69.8353 33.271 3.967
68.9604 29.0412 3.96541
67.6044 24.9147 3.96429
66.0993 27.6593 3.96809
64.0165 10.9835 4
64.6675 23.8599 3.96573
63.8861 14.3303 3.97395
63.5044 17.4566 3.96524
62.8324 20.3542 3.96251
61.926 23.0063 3.96823
60.6811 11.1015 3.97882
57.6061 11.4723 3.96975
72.1454 51.8506 0
69.9759 56.25 0
68.8335 53.1134 0.0244986
64.0165 64.0165 0
63.8826 60.7636 0.0255328
66.6078 57.1327 0.0247196
63.4932 57.7643 0.0340766
62.2255 65.694 2
58.8941 65.4095 2
69.7659 50.9878 2
67.7812 55.1637 2
66.6382 52.2057 2
62.3352 62.4199 2
64.6514 56.0265 2
62.1937 59.3915 2
61.7786 56.6556 2
60.6661 63.9737 3.98014
57.023 66.7339 3.98719
57.553 63.6765 3.9714
67.4972 50.1747 3.96438
65.6937 54.1706 3.96458
64.4346 51.3553 3.96586
60.7676 60.9184 3.96866
62.7547 55.0407 3.9635
60.6292 58.1318 3.96081
60.2305 55.7366 3.96461
56.25 69.9759 4
58.3339 68.6801 2
60.3285 67.2507 0
58.9184 9.65922 3.98023
62.2254 9.30607 4
73.0099 49.554 0
74.2788 44.8158 0
71.2471 46.598 0.02462
72.1666 42.0857 0.0231453
74.9194 39.9526 0
75 37.5 2
72.4038 39.8024 2
71.7805 44.3523 2
69.7984 41.7896 2
70.5722 48.813 2
68.9056 46.0134 2
72.4874 37.5126 3.97742
70.0367 39.6582 3.96747
69.4249 43.9072 3.96647
67.5041 41.4895 3.97181
68.2575 48.1057 3.96481
66.5997 45.4204 3.97005
74.9197 35.0474 0
74.2794 30.1841 0
72.1833 32.9442 0.0229121
71.2763 28.4322 0.0242445
65.694 12.7746 0
65.3202 16.1056 0.026725
69.813 24.0598 0.024083
68.3404 26.9544 0.0354076
66.7541 22.9362 0.0358162
64.7052 19.2005 0.0354483
63.8068 22.0668 0.0356063
72.4117 35.2249 2
71.8021 30.6778 2
69.8345 33.2716 2
68.9601 29.0421 2
64.0165 10.9835 2
63.8882 14.3356 2
63.503 17.4577 2
67.604 24.916 2
66.0985 27.6601 2
62.8318 20.3548 2
64.6671 23.8607 2
61.9249 23.0073 2
60.6837 11.1056 2
57.6071 11.4649 2
70.0535 35.394 3.96747
69.462 31.1524 3.96616
67.5703 33.6024 3.97107
66.6756 29.6439 3.96887
65.4299 25.7269 3.96686
63.9382 28.3052 3.97462
62.3381 12.6588 3.97675
62.6727 24.6974 3.97047
62.1909 15.8005 3.96631
61.7538 18.7201 3.96112
61.0618 21.4087 3.96537
60.1755 23.8203 3.97226
59.2398 12.8092 3.96758
55.869 10.2542 3.97308
56.3941 13.1696 3.96876
69.7662 50.9892 0.0247721
62.2254 65.694 0
58.8919 65.413 0.0161162
67.7807 55.1671 0.0243618
66.6391 52.2069 0.035695
62.3327 62.4244 0.0224777
62.1961 59.3918 0.0340928
64.6527 56.0271 0.0346355
61.7783 56.6553 0.0380528
60.6684 63.9707 2
57.0254 66.7322 2
57.5541 63.6802 2
67.4977 50.1738 2
65.6917 54.1695 2
64.4346 51.3548 2
60.7665 60.9201 2
62.7549 55.0409 2
60.6331 58.1335 2
60.2296 55.7366 2
55.0688 67.9312 3.9883
59.2132 62.3377 3.96927
55.8014 64.9019 3.9758
56.3164 62.0455 3.97012
65.2185 49.3798 3.96718
63.6179 53.2628 3.96449
62.2283 50.5919 3.96952
59.3182 59.5273 3.96275
60.9362 54.2547 3.96688
59.2031 56.9594 3.96185
59.0976 55.1176 3.9676
48.0999 68.5747 3.98453
50.9466 69.9313 3.99003
54.0858 71.1327 4
56.25 69.976 2
58.3339 68.6801 0
57.0557 8.33858 3.98227
60.3285 7.74928 4
58.9212 9.66342 2
62.2255 9.30602 2
70.5727 48.8136 0.0250396
71.7807 44.3529 0.0235167
68.906 46.0141 0.0344691
69.7991 41.7899 0.0329136
72.404 39.8025 0.022211
75 37.5 0
72.4867 37.5125 2
70.0364 39.6582 2
69.4246 43.9068 2
67.5025 41.4893 2
68.2585 48.105 2
66.5972 45.4199 2
70.1248 37.523 3.96751
67.7499 39.5096 3.97221
67.1188 43.4561 3.97073
65.3367 41.1896 3.97685
65.9535 47.3933 3.96882
64.4106 44.807 3.97543
72.4118 35.2249 0.0221592
71.8022 30.6772 0.0232624
69.8353 33.271 0.0329999
68.9604 29.0412 0.0345884
64.0165 10.9835 0
63.8861 14.3303 0.0260455
63.5044 17.4566 0.0347634
67.6044 24.9147 0.0357057
66.0993 27.6593 0.0319101
64.6675 23.8599 0.0342744
62.8324 20.3542 0.0374898
61.926 23.0063 0.031767
60.6811 11.1015 0.0211811
57.6061 11.4723 0.0302538
70.0533 35.3944 2
69.4617 31.1531 2
67.5688 33.6027 2
66.6741 29.6446 2
62.3406 12.6637 2
62.1892 15.8014 2
61.7537 18.7201 2
65.4292 25.7278 2
63.936 28.3064 2
61.0606 21.4096 2
62.6715 24.6984 2
60.1743 23.8214 2
59.2404 12.8091 2
56.3956 13.1668 2
55.871 10.2522 2
67.7888 35.5543 3.97176
67.1766 31.6387 3.96997
65.4929 33.9495 3.97701
64.4517 30.2343 3.97588
63.3398 26.4701 3.97261
61.945 28.8554 3.97621
60.7684 14.2461 3.9675
60.7719 25.4269 3.97476
60.5761 17.1637 3.96075
60.0778 19.8877 3.9621
59.4214 22.3571 3.96802
58.6603 24.4399 3.97451
54.0342 9.14715 3.97355
57.8974 14.3765 3.96619
54.7763 12.0646 3.96896
55.2941 14.715 3.9664
67.4972 50.1747 0.0356168
57.023 66.7339 0.0128144
60.6661 63.9737 0.019857
57.553 63.6765 0.0286006
65.6937 54.1706 0.0354183
64.4346 51.3553 0.034142
60.7676 60.9184 0.0313402
60.6292 58.1318 0.0391856
62.7547 55.0407 0.0364988
60.2305 55.7366 0.0353872
55.0708 67.9297 2
59.2133 62.3398 2
55.8018 64.901 2
56.3151 62.0457 2
65.218 49.3792 2
63.6176 53.2625 2
62.228 50.5914 2
59.3182 59.5297 2
60.9366 54.2547 2
59.2082 56.9607 2
59.1011 55.118 2
53.0409 68.9993 3.98976
53.9636 66.0054 3.97883
57.868 60.8335 3.96892
54.6751 63.1803 3.97102
55.1935 60.5636 3.9719
62.9649 48.6047 3.97168
61.5613 52.5165 3.96819
59.9572 49.9306 3.97202
57.974 58.2175 3.96146
59.1296 53.872 3.969
57.9585 55.7355 3.96301
50.1065 67.8527 3.98367
47.4608 66.5716 3.9796
46.0538 69.1539 3.98532
48.1005 68.5749 2
48.8005 70.7226 3.99047
50.9481 69.9306 2
51.8506 72.1454 4
54.0858 71.1327 2
56.25 69.9759 0
55.1008 7.14292 3.98588
58.3339 6.31992 4
57.0589 8.342 2
60.3286 7.74926 2
58.9184 9.65922 0.0197651
62.2254 9.30607 0
68.2575 48.1057 0.0351865
69.4249 43.9072 0.0335341
66.5997 45.4204 0.0299529
67.5041 41.4895 0.0281941
70.0367 39.6582 0.0325345
72.4874 37.5126 0.0225831
70.1241 37.5232 2
67.7479 39.5095 2
67.1179 43.4558 2
65.3337 41.1889 2
65.9535 47.3929 2
64.4085 44.8061 2
67.8506 37.5241 3.97217
65.5758 39.3617 3.97674
64.9512 42.9943 3.97677
63.4366 40.9019 3.97669
63.7212 46.6663 3.97365
62.4575 44.1525 3.9765
70.0535 35.394 0.0325341
69.462 31.1524 0.0338392
67.5703 33.6024 0.0289318
66.6756 29.6439 0.0311315
62.3381 12.6588 0.0232549
62.1909 15.8005 0.0336906
61.7538 18.7201 0.0388829
65.4299 25.7269 0.0331369
63.9382 28.3052 0.0253793
62.6727 24.6974 0.0295308
61.0618 21.4087 0.0346299
60.1755 23.8203 0.0277371
59.2398 12.8092 0.0324162
56.3941 13.1696 0.0312443
55.869 10.2542 0.0269161
67.7866 35.5545 2
67.176 31.6392 2
65.4893 33.9504 2
64.4491 30.2354 2
60.7681 14.2468 2
60.5751 17.1634 2
60.0763 19.8885 2
63.3379 26.4712 2
61.9426 28.8563 2
59.4232 22.3577 2
60.7701 25.4281 2
58.6596 24.4411 2
57.8963 14.3767 2
55.2949 14.7124 2
54.0363 9.14724 2
54.7771 12.0601 2
65.6743 35.6796 3.97684
64.9712 32.187 3.97676
64.0012 34.278 3.97674
62.2618 30.6995 3.97628
61.3552 27.1568 3.97581
60.4677 29.2344 3.97639
59.2929 15.7066 3.96144
58.9762 25.9172 3.9762
59.0244 18.4235 3.96064
58.5247 20.9562 3.96353
57.9794 23.2179 3.96954
57.6173 24.8021 3.97518
52.1095 8.16249 3.97722
53.0495 11.0525 3.97038
56.6512 15.8037 3.96165
53.7902 13.7534 3.96529
54.3379 16.0817 3.96103
55.0688 67.9312 0.0117006
65.2185 49.3798 0.0328225
55.8014 64.9019 0.0242035
59.2132 62.3377 0.0307346
56.3164 62.0455 0.0298819
63.6179 53.2628 0.0355105
62.2283 50.5919 0.0304755
59.3182 59.5273 0.037253
59.2031 56.9594 0.0381534
60.9362 54.2547 0.0331242
59.0976 55.1176 0.0323979
53.0427 68.9986 2
53.9645 66.0054 2
57.8666 60.8345 2
54.6747 63.182 2
55.1907 60.5638 2
62.9636 48.6039 2
61.5613 52.5162 2
59.9583 49.9301 2
57.9709 58.2184 2
59.1334 53.8722 2
57.9552 55.7339 2
52.0676 66.9949 3.98222
52.9482 64.2037 3.97576
56.6245 59.4454 3.96718
[...]
POINT_DATA 3012
SCALARS rho_c_phif_kappa float 4
LOOKUP_TABLE default
1000 0 1.00199 0.268822
1000 0 1.00163 0.269188
1000 0 1.00199 0.268868
1000 0 1.00199 0.269241
1000 0 1.00199 0.268922
1000 0 1.00199 0.268825
1010.56 1.16936e-08 1.00231 0.267685
1000 0 1.00163 0.269221
1000 0 1.00163 0.269644
1000 0 1.00163 0.269336
1000 0 1.00199 0.26873
1010.52 1.1463e-08 1.00249 0.267751
1000 0 1.00198 0.269624
1000 0 1.00198 0.270319
1000 0 1.00199 0.268892
1000 0 1.00198 0.269661
1000 0 1.00199 0.268753
1000 0 1.00199 0.269109
1010.47 1.17249e-08 1.00231 0.267708
1000 0 1.00163 0.269705
1000 0 1.00198 0.269353
1000 0 1.00199 0.26908
1010.51 1.18231e-08 1.0023 0.268526
1010.54 1.17459e-08 1.00231 0.26797
1000 0 1.00199 0.268922
1010.59 1.16417e-08 1.00231 0.267384
1011.45 1.31616e-08 1.00262 0.264551
1000 0 1.00163 0.269284
1000 0 1.00181 0.269308
1000 0 1.00181 0.269045
1000 0 1.00163 0.269414
1010.53 1.15018e-08 1.00249 0.26767
1000 0 1.00199 0.269082
1000 0 1.00199 0.268632
1010.55 1.17664e-08 1.00231 0.267724
1000 0 1.00163 0.269872
1010.51 1.15537e-08 1.00231 0.267763
1010.56 1.14175e-08 1.0025 0.267728
1011.47 1.31424e-08 1.00263 0.26468
1000 0 1.00163 0.270085
1000 0 1.00163 0.269703
1000 0 1.00181 0.269967
1000 0 1.00163 0.269742
1000 0 1.00198 0.270428
1010.46 1.18437e-08 1.00248 0.268589
1000 0 1.00163 0.270225
1010.53 1.18771e-08 1.0023 0.268223
1000 0 1.00198 0.270117
1000 0 1.00199 0.269295
1000 0 1.00199 0.268658
1010.56 1.16936e-08 1.00231 0.267731
1000 0 1.0018 0.270003
1000 0 1.00198 0.269821
1000 0 1.002 0.268782
1000 0 1.00199 0.269405
1010.3 1.18509e-08 1.0023 0.268315
1010.55 1.16772e-08 1.00231 0.2675
1010.39 1.17741e-08 1.00231 0.267897
1011.46 1.31575e-08 1.00262 0.26441
1000 0 1.00163 0.269758
1000 0 1.00198 0.26944
1010.45 1.18182e-08 1.0023 0.26893
1010.49 1.18379e-08 1.0023 0.268706
1010.52 1.17921e-08 1.0023 0.268261
1011.42 1.31592e-08 1.00261 0.265299
1011.44 1.31604e-08 1.00262 0.264454
1000 0 1.002 0.269168
1010.63 1.15973e-08 1.00232 0.267033
1011.47 1.31661e-08 1.00263 0.26448
1011.3 1.30234e-08 1.0026 0.259712
1000 0 1.00163 0.269191
1000 0 1.00163 0.269597
1000 0 1.00163 0.269109
1010.52 1.1463e-08 1.00249 0.267594
1000 0 1.00163 0.269344
1000 0 1.00163 0.269074
1010.41 1.17954e-08 1.00249 0.267886
1000 0 1.00181 0.26946
1010.48 1.15893e-08 1.00249 0.267763
1010.62 1.14564e-08 1.00241 0.267634
1011.47 1.31378e-08 1.00263 0.264801
1000 0 1.00163 0.269859
1010.86 1.14649e-08 1.00252 0.268324
1010.56 1.18365e-08 1.00249 0.268043
1010.53 1.16654e-08 1.00249 0.267868
1011.43 1.31602e-08 1.00262 0.264331
1010.64 1.14079e-08 1.00232 0.267632
1011.46 1.31468e-08 1.00262 0.264453
1011.5 1.31528e-08 1.00263 0.264925
1011.34 1.30741e-08 1.00261 0.261084
1000 0 1.00163 0.270301
1000 0 1.00163 0.270249
1000 0 1.00163 0.269568
1000 0 1.00163 0.269701
1000 0 1.00163 0.269733
1000 0 1.00181 0.270045
1010.18 1.18713e-08 1.00239 0.268523
1000 0 1.00181 0.269806
1010.34 1.19056e-08 1.00239 0.268393
1000 0 1.00163 0.269752
1010.44 1.182e-08 1.00247 0.268714
1010.5 1.18642e-08 1.0023 0.268332
1011.4 1.31542e-08 1.00261 0.265996
1010.55 1.18723e-08 1.0023 0.268106
1011.41 1.31626e-08 1.00261 0.265474
1000 0 1.00198 0.269609
1000 0 1.00198 0.270345
1000 0 1.002 0.268649
1000 0 1.00198 0.269737
1010.51 1.18231e-08 1.0023 0.268101
1010.54 1.17459e-08 1.00231 0.267825
1010.59 1.16417e-08 1.00231 0.267615
1011.45 1.31616e-08 1.00262 0.264286
1000 0 1.00163 0.269725
1000 0 1.00198 0.269918
1010.18 1.18463e-08 1.00238 0.268603
1010.29 1.18665e-08 1.0023 0.268503
1000 0 1.00181 0.269039
1010.64 1.16364e-08 1.00232 0.267346
1010.35 1.18192e-08 1.0023 0.268096
1011.44 1.31555e-08 1.00261 0.265228
1011.47 1.31609e-08 1.00263 0.264263
1011.45 1.31567e-08 1.00262 0.264506
1011.3 1.30239e-08 1.0026 0.259704
1010.41 1.18088e-08 1.00247 0.268782
1010.47 1.18348e-08 1.0023 0.268791
1011.4 1.31513e-08 1.00261 0.266057
1011.41 1.31583e-08 1.00261 0.265621
1011.42 1.316e-08 1.00261 0.264794
1011.27 1.29845e-08 1.0026 0.261933
1000 0 1.00163 0.269675
1011.28 1.30066e-08 1.0026 0.260054
1010.69 1.15643e-08 1.00251 0.267189
1011.49 1.31773e-08 1.00263 0.264306
1011.31 1.30429e-08 1.00261 0.259418
1011.24 1.29529e-08 1.0026 0.256106
1010.81 1.15385e-08 1.00252 0.267889
1011.58 1.32293e-08 1.00264 0.266814
1000 0 1.00163 0.269337
1000 0 1.00163 0.269108
1010.55 1.17664e-08 1.00249 0.267934
1000 0 1.00163 0.269886
1010.56 1.14175e-08 1.0025 0.267512
1010.51 1.15537e-08 1.00249 0.267738
1011.47 1.31424e-08 1.00263 0.264914
1000 0 1.00163 0.270005
1010.89 1.14883e-08 1.00252 0.268526
1010.39 1.18644e-08 1.0024 0.268005
1010.44 1.1697e-08 1.0024 0.267792
1011.45 1.31565e-08 1.00262 0.264359
1010.69 1.14432e-08 1.00251 0.26765
1011.46 1.31424e-08 1.00262 0.26457
1011.5 1.31493e-08 1.00263 0.265048
1011.34 1.30754e-08 1.00261 0.260772
1010.73 1.14302e-08 1.00252 0.267833
1010.96 1.15002e-08 1.00253 0.268763
1011.58 1.32132e-08 1.00264 0.267474
1011.42 1.31641e-08 1.00261 0.264599
1011.45 1.3154e-08 1.00262 0.264274
1011.28 1.29946e-08 1.0026 0.259613
1011.53 1.31738e-08 1.00264 0.265662
1011.32 1.30483e-08 1.0026 0.259312
1011.35 1.30996e-08 1.00261 0.262107
1011.28 1.29974e-08 1.00261 0.25779
1000 0 1.00163 0.270378
1000 0 1.00163 0.270338
1000 0 1.00163 0.270301
1010.91 1.15544e-08 1.00253 0.268456
1000 0 1.00163 0.269933
1000 0 1.00163 0.269476
1000 0 1.00163 0.269645
1010.53 1.18771e-08 1.00248 0.26859
1010.46 1.18437e-08 1.00248 0.268739
1000 0 1.00163 0.269753
1000 0 1.00163 0.26975
1010.38 1.18456e-08 1.00247 0.268731
1010.47 1.18911e-08 1.00239 0.268499
1011.43 1.31502e-08 1.00261 0.265997
1010.35 1.19004e-08 1.00248 0.268361
1011.44 1.31584e-08 1.00261 0.265454
1010.41 1.18021e-08 1.00247 0.268749
1011.4 1.31494e-08 1.00261 0.266126
1011.41 1.3159e-08 1.00261 0.265817
1011.27 1.29755e-08 1.00259 0.26393
1011.42 1.3164e-08 1.00261 0.265029
1011.27 1.29778e-08 1.00259 0.262419
1000 0 1.00163 0.269733
1000 0 1.00198 0.270439
1010.45 1.18182e-08 1.00247 0.268613
1010.49 1.18379e-08 1.0023 0.268284
1000 0 1.00163 0.269457
1010.63 1.15973e-08 1.00232 0.26766
1010.52 1.17921e-08 1.0023 0.267933
1011.42 1.31592e-08 1.00261 0.265147
1011.44 1.31604e-08 1.00262 0.264552
1011.47 1.31661e-08 1.00263 0.264054
1011.3 1.30234e-08 1.0026 0.259694
1010.34 1.18344e-08 1.00247 0.268759
1010.44 1.18618e-08 1.0023 0.268602
1011.43 1.31473e-08 1.00261 0.265981
1011.43 1.31542e-08 1.00261 0.265634
1000 0 1.00163 0.269589
1010.72 1.16026e-08 1.00242 0.267381
1011.49 1.31719e-08 1.00263 0.264252
1011.44 1.31564e-08 1.00261 0.264733
1011.27 1.29848e-08 1.0026 0.261691
1011.31 1.30437e-08 1.0026 0.259377
1011.28 1.3007e-08 1.0026 0.260149
1011.24 1.2953e-08 1.0026 0.256174
1010.88 1.15703e-08 1.00252 0.267746
1011.57 1.32245e-08 1.00264 0.266839
1011.4 1.31483e-08 1.00261 0.266156
1011.41 1.31557e-08 1.00261 0.265889
1011.27 1.29787e-08 1.0026 0.263913
1011.27 1.29788e-08 1.00259 0.262292
1011.28 1.29939e-08 1.0026 0.260712
1011.22 1.29243e-08 1.00259 0.259013
1010.74 1.1542e-08 1.00251 0.267382
1011.23 1.29396e-08 1.00259 0.256557
1011.52 1.31945e-08 1.00263 0.264949
1011.33 1.30667e-08 1.00261 0.25964
1011.26 1.29683e-08 1.0026 0.255833
1011.24 1.29485e-08 1.00259 0.254608
1011.56 1.32172e-08 1.00264 0.266026
1011.59 1.32422e-08 1.00264 0.267675
1011.39 1.31588e-08 1.00262 0.26546
1010.56 1.18365e-08 1.00248 0.268145
1000 0 1.00163 0.270206
1010.86 1.14649e-08 1.00252 0.268777
1010.53 1.16654e-08 1.00249 0.267799
1011.43 1.31602e-08 1.00262 0.264396
1010.64 1.14079e-08 1.00251 0.267741
1011.5 1.31528e-08 1.00263 0.265176
1011.46 1.31468e-08 1.00262 0.264681
1011.34 1.30741e-08 1.00261 0.260463
1010.79 1.14587e-08 1.00252 0.268032
1010.98 1.15169e-08 1.00253 0.268903
1011.58 1.32105e-08 1.00264 0.267577
1011.44 1.31602e-08 1.00261 0.264596
1011.46 1.31502e-08 1.00262 0.264347
1011.27 1.29953e-08 1.0026 0.259618
1011.53 1.31707e-08 1.00264 0.265773
1011.32 1.30492e-08 1.00261 0.259503
1011.36 1.31005e-08 1.00261 0.262164
1011.28 1.29975e-08 1.0026 0.257236
1011.06 1.15354e-08 1.00254 0.268967
1011.56 1.31959e-08 1.00264 0.266732
1011.59 1.32247e-08 1.00264 0.268447
1011.41 1.3178e-08 1.00263 0.266188
1011.27 1.29773e-08 1.00259 0.260203
1011.29 1.30219e-08 1.0026 0.259269
1011.23 1.29223e-08 1.00259 0.255748
1011.37 1.31274e-08 1.00262 0.263754
1011.26 1.29631e-08 1.0026 0.254582
1011.3 1.30146e-08 1.00261 0.258527
1011.27 1.29834e-08 1.0026 0.255672
1011.59 1.32521e-08 1.00264 0.269829
1011.23 1.16033e-08 1.00255 0.269003
1000 0 1.00163 0.270391
1000 0 1.00163 0.270364
1000 0 1.00163 0.270327
1011.02 1.15923e-08 1.00254 0.268712
1000 0 1.00163 0.270115
1010.96 1.15828e-08 1.00253 0.268248
1000 0 1.00163 0.269814
1010.55 1.18723e-08 1.00248 0.268387
1010.5 1.18642e-08 1.00248 0.268693
1011.41 1.31626e-08 1.00261 0.265427
1011.4 1.31542e-08 1.00261 0.265991
1010.44 1.182e-08 1.00247 0.268758
1000 0 1.00163 0.26975
1010.08 1.18303e-08 1.00247 0.268749
1011.4 1.31457e-08 1.00261 0.266124
1011.41 1.31551e-08 1.00261 0.265785
1011.26 1.29755e-08 1.00259 0.263921
1011.44 1.316e-08 1.00261 0.265004
1011.26 1.29781e-08 1.00259 0.262477
1011.39 1.31472e-08 1.00261 0.266176
1011.26 1.29729e-08 1.00259 0.264224
1011.26 1.29781e-08 1.00259 0.263438
1011.22 1.29153e-08 1.00259 0.261836
1011.26 1.29762e-08 1.00259 0.261233
1011.22 1.2921e-08 1.00259 0.259971
1010.41 1.18088e-08 1.00247 0.268734
1010.47 1.18348e-08 1.0023 0.268381
1011.4 1.31513e-08 1.00261 0.265915
1011.41 1.31583e-08 1.00261 0.265625
1000 0 1.00163 0.269493
1010.69 1.15643e-08 1.00233 0.267315
1011.49 1.31773e-08 1.00263 0.264198
1011.42 1.316e-08 1.00261 0.264667
1011.27 1.29845e-08 1.00259 0.261436
1011.28 1.30066e-08 1.0026 0.260252
1011.31 1.30429e-08 1.0026 0.259307
1011.24 1.29529e-08 1.0026 0.256232
1010.81 1.15385e-08 1.00252 0.267603
1011.58 1.32293e-08 1.00264 0.266838
1011.4 1.31446e-08 1.00261 0.266101
1011.41 1.31521e-08 1.00261 0.265875
1011.26 1.29787e-08 1.0026 0.263837
1011.26 1.2979e-08 1.00259 0.262497
1010.79 1.15773e-08 1.00251 0.267339
1011.52 1.319e-08 1.00263 0.264751
1011.33 1.30679e-08 1.00261 0.259729
1011.27 1.29943e-08 1.0026 0.260848
1011.22 1.29239e-08 1.00259 0.258721
1011.26 1.29685e-08 1.0026 0.255523
1011.23 1.29395e-08 1.00259 0.256578
1011.24 1.29482e-08 1.00259 0.254455
1011.55 1.32148e-08 1.00264 0.266224
1011.39 1.31607e-08 1.00262 0.265611
1011.58 1.32389e-08 1.00264 0.267515
1011.26 1.29746e-08 1.0026 0.264306
1011.26 1.29786e-08 1.0026 0.263198
1011.22 1.2923e-08 1.00259 0.262026
1011.22 1.29186e-08 1.00259 0.259597
1011.22 1.29282e-08 1.00259 0.25717
1011.21 1.29185e-08 1.00259 0.256197
1011.54 1.32061e-08 1.00264 0.265515
1011.23 1.29347e-08 1.00259 0.254332
1011.35 1.3096e-08 1.00261 0.26167
1011.27 1.29837e-08 1.0026 0.254406
1011.25 1.29618e-08 1.0026 0.253375
1011.23 1.29371e-08 1.00259 0.252798
1011.59 1.32533e-08 1.00264 0.268485
1011.38 1.31424e-08 1.00262 0.264859
1011.4 1.31728e-08 1.00262 0.266407
1011.36 1.30882e-08 1.00262 0.264572
1011.42 1.31641e-08 1.00261 0.264598
1010.96 1.15002e-08 1.00253 0.269016
1010.73 1.14302e-08 1.00252 0.268257
1011.58 1.32132e-08 1.00264 0.267692
1011.45 1.3154e-08 1.00262 0.264426
1011.28 1.29946e-08 1.0026 0.259618
1011.53 1.31738e-08 1.00264 0.265873
1011.35 1.30996e-08 1.00261 0.262211
1011.32 1.30483e-08 1.00261 0.259692
1011.28 1.29974e-08 1.0026 0.256728
1011.07 1.15495e-08 1.00254 0.269039
1011.55 1.3193e-08 1.00264 0.266699
1011.59 1.32226e-08 1.00264 0.268626
1011.41 1.31788e-08 1.00263 0.266278
1011.26 1.29776e-08 1.00259 0.260213
1011.29 1.30227e-08 1.0026 0.259291
1011.23 1.2922e-08 1.00259 0.255747
1011.38 1.31289e-08 1.00262 0.263995
1011.26 1.29636e-08 1.0026 0.254972
1011.3 1.30147e-08 1.00261 0.258219
1011.27 1.29839e-08 1.0026 0.25591
1011.15 1.15665e-08 1.00255 0.269029
1011.59 1.32321e-08 1.00264 0.269367
1011.39 1.31551e-08 1.00262 0.265411
1011.41 1.31894e-08 1.00263 0.267063
1011.38 1.31058e-08 1.00262 0.265138
1011.22 1.29176e-08 1.00259 0.25647
1011.24 1.29304e-08 1.0026 0.254679
1011.24 1.30461e-08 1.00259 0.252929
1011.33 1.30423e-08 1.00262 0.259815
1011.25 1.2979e-08 1.0026 0.251572
1011.28 1.29886e-08 1.0026 0.255289
1011.59 1.32428e-08 1.00264 0.269856
1011.39 1.31852e-08 1.00263 0.269605
1011.59 1.32631e-08 1.00264 0.26981
1011.59 1.32507e-08 1.00264 0.269832
1011.31 1.16416e-08 1.00236 0.269323
1011.23 1.16154e-08 1.00246 0.269306
1000 0 1.00202 0.269632
1000 0 1.00163 0.270368
1000 0 1.00163 0.270344
1011.13 1.16448e-08 1.00255 0.268915
1000 0 1.00163 0.270273
1011.05 1.16151e-08 1.00254 0.268595
1000 0 1.00163 0.270028
1010.91 1.15544e-08 1.00253 0.268089
1000 0 1.00163 0.269724
1011.42 1.3164e-08 1.00261 0.264982
1011.41 1.3159e-08 1.00261 0.265768
1011.27 1.29778e-08 1.00259 0.262499
1011.27 1.29755e-08 1.00259 0.263914
1011.4 1.31494e-08 1.00261 0.266118
1010.41 1.18021e-08 1.00247 0.268728
1011.43 1.31432e-08 1.00261 0.266176
1011.26 1.29728e-08 1.00259 0.264218
1011.26 1.29784e-08 1.00259 0.263374
1011.22 1.2915e-08 1.00259 0.261732
1011.26 1.29767e-08 1.00259 0.261234
1011.22 1.29208e-08 1.00259 0.259988
1011.26 1.29729e-08 1.00259 0.264308
1011.22 1.29013e-08 1.00259 0.262457
1011.22 1.29141e-08 1.00259 0.261156
1011.22 1.29892e-08 1.00259 0.260795
1011.22 1.29162e-08 1.00259 0.257832
1011.21 1.29299e-08 1.00259 0.257121
1011.4 1.31483e-08 1.0026 0.266051
1011.41 1.31557e-08 1.00261 0.265889
1011.27 1.29787e-08 1.0026 0.263723
1011.27 1.29788e-08 1.0026 0.262721
1010.74 1.1542e-08 1.00252 0.267293
1011.52 1.31945e-08 1.00263 0.264551
1011.33 1.30667e-08 1.00261 0.259831
1011.28 1.29939e-08 1.0026 0.260993
1011.22 1.29243e-08 1.00259 0.258431
1011.23 1.29396e-08 1.00259 0.256598
1011.26 1.29683e-08 1.0026 0.255261
1011.24 1.29485e-08 1.00259 0.254341
1011.56 1.32172e-08 1.00264 0.266406
1011.39 1.31588e-08 1.00262 0.265748
1011.59 1.32422e-08 1.00264 0.267411
1011.27 1.29745e-08 1.00259 0.264255
1011.26 1.29788e-08 1.0026 0.263177
1011.22 1.29226e-08 1.00259 0.26183
1011.22 1.29182e-08 1.00259 0.259786
1011.54 1.3202e-08 1.00264 0.265465
1011.35 1.30965e-08 1.00261 0.261526
1011.27 1.29843e-08 1.0026 0.254719
1011.22 1.2928e-08 1.00259 0.257415
1011.21 1.29182e-08 1.00259 0.256039
1011.25 1.29615e-08 1.0026 0.253104
1011.23 1.29345e-08 1.00259 0.25435
1011.22 1.29371e-08 1.00259 0.253028
1011.38 1.31444e-08 1.00262 0.264682
1011.36 1.30889e-08 1.00262 0.264472
1011.58 1.32512e-08 1.00264 0.268419
1011.4 1.31733e-08 1.00262 0.266765
1011.22 1.2914e-08 1.00259 0.262479
1011.21 1.29106e-08 1.00259 0.260854
1011.21 1.29311e-08 1.00259 0.260895
1011.21 1.29257e-08 1.00258 0.256607
1011.22 1.29353e-08 1.00259 0.255069
1011.21 1.29119e-08 1.00258 0.254887
1011.37 1.31211e-08 1.00262 0.263859
1011.22 1.29342e-08 1.00259 0.252288
1011.3 1.30103e-08 1.00261 0.256033
1011.26 1.29741e-08 1.0026 0.251136
1011.24 1.29789e-08 1.00259 0.251864
1011.2 1.2852e-08 1.00259 0.252358
1011.59 1.32658e-08 1.00264 0.26906
1011.39 1.31769e-08 1.00263 0.267262
1011.34 1.30682e-08 1.00262 0.263138
1011.38 1.31107e-08 1.00262 0.265289
1011.36 1.30814e-08 1.00262 0.263087
1011.06 1.15354e-08 1.00254 0.269119
1011.27 1.29773e-08 1.00259 0.26023
1011.59 1.32247e-08 1.00264 0.26882
1011.56 1.31959e-08 1.00264 0.266623
1011.41 1.3178e-08 1.00263 0.266346
1011.29 1.30219e-08 1.0026 0.259303
1011.23 1.29223e-08 1.00259 0.255744
1011.37 1.31274e-08 1.00262 0.264239
1011.3 1.30146e-08 1.00261 0.257749
1011.26 1.29631e-08 1.0026 0.255362
1011.27 1.29834e-08 1.0026 0.256033
1011.15 1.15784e-08 1.00255 0.26906
1011.59 1.32307e-08 1.00264 0.269441
1011.39 1.31564e-08 1.00262 0.265471
1011.41 1.319e-08 1.00263 0.267306
1011.38 1.31069e-08 1.00262 0.265088
1011.22 1.29187e-08 1.00259 0.256408
1011.24 1.29303e-08 1.0026 0.254671
1011.24 1.30473e-08 1.00259 0.252867
1011.33 1.30434e-08 1.00262 0.260015
1011.25 1.29785e-08 1.0026 0.251919
1011.28 1.29898e-08 1.0026 0.255184
1011.59 1.32365e-08 1.00264 0.269751
1011.41 1.3193e-08 1.00263 0.268172
1011.35 1.30761e-08 1.00262 0.262833
1011.4 1.31323e-08 1.00263 0.266086
1011.37 1.31007e-08 1.00262 0.26391
1011.23 1.30757e-08 1.00259 0.254567
1011.25 1.29988e-08 1.00259 0.251239
1011.12 1.24449e-08 1.00259 0.250217
1011.31 1.30159e-08 1.00261 0.255525
1011.27 1.30968e-08 1.0026 0.251432
1011.59 1.32416e-08 1.00264 0.269882
1011.4 1.31862e-08 1.00263 0.269566
1011.39 1.31862e-08 1.00263 0.269568
1011.4 1.31374e-08 1.00263 0.268675
1011.39 1.31861e-08 1.00263 0.269542
1011.59 1.32758e-08 1.00264 0.269822
1011.59 1.32615e-08 1.00264 0.269805
1011.38 1.16915e-08 1.00237 0.269315
1011.59 1.32521e-08 1.00264 0.269838
1011.31 1.1652e-08 1.00236 0.269502
1000 0 1.00203 0.269584
1011.23 1.16033e-08 1.00236 0.269491
1000 0 1.00183 0.26975
1000 0 1.00163 0.270346
1011.24 1.16951e-08 1.00255 0.26911
1011.15 1.16592e-08 1.00255 0.26879
1000 0 1.00163 0.270327
1000 0 1.00163 0.270179
1011.02 1.15923e-08 1.00254 0.268449
1000 0 1.00163 0.269921
1011.26 1.29762e-08 1.00259 0.261231
1011.26 1.29781e-08 1.00259 0.263348
1011.22 1.2921e-08 1.00259 0.260013
1011.22 1.29153e-08 1.00259 0.261627
1011.26 1.29729e-08 1.00259 0.264211
1011.39 1.31472e-08 1.00261 0.26617
1011.26 1.29727e-08 1.00259 0.264311
1011.21 1.2901e-08 1.00259 0.262495
1011.22 1.29134e-08 1.00259 0.261141
1011.22 1.2989e-08 1.00259 0.260675
1011.22 1.29156e-08 1.00259 0.25779
1011.21 1.29294e-08 1.00259 0.257263
1011.21 1.28898e-08 1.00259 0.262714
1011.24 1.30872e-08 1.00259 0.261645
1011.22 1.30039e-08 1.00259 0.259099
1011.19 1.29251e-08 1.00259 0.259931
1011.22 1.29859e-08 1.00259 0.256332
1011.23 1.30056e-08 1.00258 0.255899
1011.26 1.29746e-08 1.00259 0.264209
1011.26 1.29786e-08 1.0026 0.263098
1011.22 1.2923e-08 1.00259 0.261649
1011.22 1.29186e-08 1.00259 0.259976
1011.54 1.32061e-08 1.00264 0.26541
1011.35 1.3096e-08 1.00261 0.261397
1011.27 1.29837e-08 1.0026 0.255015
1011.22 1.29282e-08 1.00259 0.257653
1011.21 1.29185e-08 1.00259 0.255899
1011.23 1.29347e-08 1.00259 0.254369
1011.25 1.29618e-08 1.0026 0.252748
1011.23 1.29371e-08 1.00259 0.253148
1011.38 1.31424e-08 1.00262 0.264536
1011.36 1.30882e-08 1.00262 0.264444
1011.59 1.32533e-08 1.00264 0.268326
1011.4 1.31728e-08 1.00262 0.266873
1011.22 1.29138e-08 1.00259 0.262486
1011.21 1.29102e-08 1.00259 0.260849
1011.21 1.29311e-08 1.00259 0.260823
1011.21 1.29259e-08 1.00258 0.256833
1011.37 1.31226e-08 1.00262 0.263677
1011.3 1.30115e-08 1.00261 0.256431
1011.26 1.29733e-08 1.0026 0.250923
1011.22 1.2935e-08 1.00259 0.255232
1011.21 1.29121e-08 1.00258 0.254792
1011.24 1.29786e-08 1.00259 0.251606
1011.22 1.29339e-08 1.00259 0.252293
1011.2 1.28507e-08 1.00259 0.252502
1011.34 1.30689e-08 1.00262 0.263035
1011.35 1.30799e-08 1.00262 0.262878
1011.38 1.31098e-08 1.00262 0.265385
1011.59 1.32639e-08 1.00264 0.268995
1011.4 1.31772e-08 1.00263 0.26722
1011.23 1.30667e-08 1.00259 0.26144
1011.22 1.29679e-08 1.00258 0.259303
1011.2 1.28809e-08 1.00258 0.254448
1011.19 1.28706e-08 1.00258 0.253541
1011.33 1.30442e-08 1.00262 0.260465
1011.19 1.28108e-08 1.00258 0.249462
1011.29 1.29977e-08 1.00261 0.252075
1011.26 1.30518e-08 1.0026 0.247957
1011.2 1.27762e-08 1.00259 0.250735
1011.59 1.32773e-08 1.00264 0.269385
1011.39 1.31795e-08 1.00263 0.267724
1011.39 1.31205e-08 1.00263 0.26637
1011.34 1.30635e-08 1.00262 0.260883
1011.38 1.31072e-08 1.00262 0.263825
1011.35 1.3083e-08 1.00262 0.260692
1011.15 1.15665e-08 1.00255 0.269067
1011.59 1.32321e-08 1.00264 0.269505
1011.22 1.29176e-08 1.00259 0.256345
1011.41 1.31894e-08 1.00263 0.267559
1011.39 1.31551e-08 1.00262 0.265551
1011.38 1.31058e-08 1.00262 0.265031
1011.24 1.29304e-08 1.0026 0.25467
1011.24 1.30461e-08 1.00259 0.252816
1011.33 1.30423e-08 1.00262 0.260246
1011.28 1.29886e-08 1.00261 0.255196
1011.25 1.2979e-08 1.0026 0.252252
1011.59 1.32346e-08 1.00264 0.269797
1011.41 1.31934e-08 1.00263 0.268321
1011.35 1.30763e-08 1.00262 0.263034
1011.4 1.31327e-08 1.00263 0.266209
1011.37 1.31038e-08 1.00262 0.263685
1011.23 1.30702e-08 1.00259 0.254515
1011.25 1.30006e-08 1.00259 0.251274
1011.12 1.24387e-08 1.00258 0.250177
1011.31 1.3017e-08 1.00261 0.255328
1011.28 1.30984e-08 1.0026 0.251202