# vtk DataFile Version 2.0
Wound Healing Simulation
ASCII
DATASET UNSTRUCTURED_GRID
POINTS 3012 float
69.9759 18.75 4
67.2507 60.3285 4
69.976 18.75 2
73.0099 25.446 4
71.1327 20.9142 4
68.6801 16.6661 4
67.82 19.9249 3.97091
67.2507 60.3286 2
71.1327 54.0858 4
68.6801 58.3339 4
65.6939 62.2254 4
65.3071 58.9988 3.97011
74.6784 42.3946 4
73.7221 47.2057 4
69.9759 18.75 0
73.0099 25.446 2
68.6801 16.6661 2
71.1327 20.9142 2
67.8205 19.9291 2
74.6792 32.6053 4
73.7222 27.7943 4
72.1454 23.1494 4
70.6105 26.2215 3.97141
68.8807 21.9568 3.97139
67.2507 14.6715 4
66.6309 17.972 3.96988
65.7163 21.0527 3.96092
67.2507 60.3285 0
71.1327 54.0858 2
68.6801 58.3339 2
65.694 62.2255 2
65.3083 58.9938 2
72.1454 51.8506 4
69.9759 56.25 4
68.8314 53.1145 3.97135
64.0165 64.0165 4
66.6049 57.1332 3.97092
63.8797 60.7608 3.96717
63.4422 57.7444 3.95834
60.3285 67.2507 4
74.6792 42.3947 2
73.7222 47.2057 2
74.9194 39.9526 4
74.2788 44.8158 4
72.1655 42.0859 3.97379
73.0099 49.554 4
71.246 46.5983 3.97219
73.0099 25.446 0
71.1327 20.9142 0
68.6801 16.6661 0
67.82 19.9249 0.0290897
74.6792 32.6053 2
73.7222 27.7943 2
67.2508 14.6715 2
72.1455 23.1494 2
70.6098 26.2228 2
66.6322 17.9768 2
68.8808 21.9599 2
65.7164 21.054 2
74.9197 35.0474 4
74.2794 30.1841 4
72.1822 32.9448 3.97381
71.2752 28.4326 3.97208
69.8113 24.0591 3.97148
68.2979 26.9669 3.96402
66.6894 22.9568 3.96221
65.694 12.7746 4
65.3177 16.1054 3.96908
64.6302 19.2256 3.95914
63.671 22.1198 3.96526
71.1327 54.0858 0
65.6939 62.2254 0
68.6801 58.3339 0
65.3071 58.9988 0.0298899
72.1455 51.8506 2
69.9759 56.25 2
68.8315 53.1113 2
64.0165 64.0165 2
66.6061 57.1283 2
63.8806 60.7551 2
63.4335 57.7436 2
62.2254 65.694 4
58.8894 65.4089 3.97469
69.7645 50.99 3.97135
67.7782 55.1683 3.97119
66.5649 52.1844 3.96269
62.3308 62.4218 3.96846
64.5811 56.0034 3.96016
62.1847 59.3804 3.95543
61.6425 56.5948 3.96075
58.3339 68.6801 4
60.3285 67.2508 2
73.7221 47.2057 0
74.6784 42.3946 0
74.9197 39.9526 2
74.2794 44.8159 2
72.1644 42.0849 2
73.0099 49.554 2
71.2452 46.5968 2
75 37.5 4
72.4028 39.8027 3.97467
71.7795 44.3531 3.97317
69.7795 41.7863 3.96688
70.5713 48.8141 3.97154
68.8633 46.0035 3.96567
74.6792 32.6053 0
73.7222 27.7943 0
67.2507 14.6715 0
72.1454 23.1494 0
70.6105 26.2215 0.0285856
68.8807 21.9568 0.028613
66.6309 17.972 0.0301175
65.7163 21.0527 0.0390811
74.9197 35.0474 2
74.2794 30.1841 2
72.1809 32.945 2
71.2742 28.4335 2
65.694 12.7745 2
65.3185 16.1111 2
69.8109 24.0612 2
68.3012 26.9677 2
64.6237 19.2278 2
66.6912 22.958 2
63.6714 22.1203 2
72.4107 35.2254 3.97462
71.8011 30.6778 3.97326
69.8183 33.2754 3.96604
68.927 29.0506 3.96446
67.5503 24.9314 3.96346
65.9796 27.6945 3.9739
64.0165 10.9835 4
64.5302 23.9089 3.96799
63.8827 14.3319 3.96585
63.4435 17.4784 3.95629
62.6965 20.4115 3.96223
61.7345 23.0865 3.97168
60.6788 11.1037 3.97215
57.6031 11.4928 3.96337
72.1454 51.8506 0
69.9759 56.25 0
68.8314 53.1145 0.0286451
64.0165 64.0165 0
63.8797 60.7608 0.0328253
66.6049 57.1332 0.0290806
63.4422 57.7444 0.0416622
62.2255 65.694 2
58.8928 65.4028 2
69.7642 50.9877 2
67.7788 55.164 2
66.5664 52.1836 2
62.3324 62.4134 2
64.5756 56.0022 2
62.1755 59.3798 2
61.6426 56.5956 2
60.6637 63.972 3.97398
57.0206 66.7319 3.9796
57.5438 63.644 3.96812
67.4314 50.1558 3.96408
65.6176 54.1464 3.96143
64.2844 51.3035 3.96906
60.7636 60.9034 3.96367
62.6129 54.9824 3.9642
60.5046 58.0707 3.95547
60.0455 55.6497 3.96678
56.25 69.9759 4
58.3339 68.6801 2
60.3285 67.2507 0
58.9165 9.66152 3.97483
62.2254 9.30607 4
73.0099 49.554 0
74.2788 44.8158 0
71.246 46.5983 0.0278071
72.1655 42.0859 0.0262097
74.9194 39.9526 0
75 37.5 2
72.4021 39.8021 2
71.7789 44.3517 2
69.7822 41.786 2
70.5707 48.8123 2
68.8679 46.0031 2
72.4864 37.5129 3.97448
70.0232 39.6569 3.96692
69.3982 43.9008 3.96652
67.3905 41.4773 3.97679
68.2018 48.0909 3.96493
66.4773 45.3925 3.97595
74.9197 35.0474 0
74.2794 30.1841 0
72.1822 32.9448 0.0261884
71.2752 28.4326 0.0279155
65.694 12.7746 0
65.3177 16.1054 0.0309215
69.8113 24.0591 0.0285238
68.2979 26.9669 0.0359838
66.6894 22.9568 0.0377878
64.6302 19.2256 0.0408578
63.671 22.1198 0.0347389
72.41 35.2252 2
71.8004 30.6786 2
69.8216 33.2757 2
68.9319 29.051 2
64.0165 10.9835 2
63.8844 14.3394 2
63.4454 17.4772 2
67.5529 24.9324 2
65.9772 27.6958 2
62.7015 20.4105 2
64.529 23.9099 2
61.7335 23.0878 2
60.6821 11.1097 2
57.6028 11.4854 2
70.0404 35.3965 3.96645
69.4384 31.159 3.96515
67.4626 33.6153 3.97652
66.5655 29.6712 3.97519
65.2976 25.7696 3.97079
63.7449 28.3635 3.97508
62.3346 12.6614 3.96755
62.4792 24.7728 3.97428
62.1747 15.8113 3.95502
61.6081 18.7834 3.95924
60.8766 21.4933 3.96779
59.9425 23.9272 3.97366
59.2352 12.8255 3.96222
55.866 10.28 3.9726
56.3846 13.1986 3.96439
69.7645 50.99 0.0286521
62.2254 65.694 0
58.8894 65.4089 0.0253144
67.7782 55.1683 0.0288147
66.5649 52.1844 0.0373128
62.3308 62.4218 0.0315441
62.1847 59.3804 0.0445675
64.5811 56.0034 0.0398392
61.6425 56.5948 0.0392469
60.6671 63.9658 2
57.0246 66.7269 2
57.5462 63.651 2
67.4333 50.155 2
65.6166 54.1455 2
64.2825 51.3028 2
60.757 60.9056 2
62.6139 54.9831 2
60.4951 58.0695 2
60.0453 55.6504 2
55.0661 67.9294 3.98267
59.2122 62.3187 3.96795
55.791 64.8674 3.97016
56.3109 62.0136 3.98071
65.0743 49.3353 3.97185
63.4686 53.2064 3.96662
62.0141 50.5102 3.97372
59.2463 59.4797 3.9541
60.7405 54.1687 3.97055
58.9933 56.8608 3.96067
58.8682 55.0105 3.97115
48.0979 68.5679 3.97946
50.9442 69.9305 3.98655
54.0858 71.1327 4
56.25 69.976 2
58.3339 68.6801 0
57.0545 8.34011 3.97708
60.3285 7.74928 4
58.92 9.66726 2
62.2255 9.30602 2
70.5713 48.8141 0.0284644
71.7795 44.3531 0.0268265
68.8633 46.0035 0.0343272
69.7795 41.7863 0.0331197
72.4028 39.8027 0.0253321
75 37.5 0
72.4851 37.5125 2
70.0264 39.6568 2
69.4004 43.9003 2
67.3876 41.4764 2
68.2032 48.09 2
66.4735 45.3913 2
70.1117 37.5237 3.96679
67.6385 39.5043 3.97667
67.0027 43.4363 3.97682
65.1733 41.1776 3.97663
65.8239 47.3573 3.9744
64.2295 44.7714 3.97612
72.4107 35.2254 0.0253794
71.8011 30.6778 0.0267441
69.8183 33.2754 0.0339647
68.927 29.0506 0.0355445
64.0165 10.9835 0
63.8827 14.3319 0.0341522
63.4435 17.4784 0.0437097
67.5503 24.9314 0.0365438
65.9796 27.6945 0.0261
64.5302 23.9089 0.0320054
62.6965 20.4115 0.0377672
61.7345 23.0865 0.0283241
60.6788 11.1037 0.0278478
57.6031 11.4928 0.036634
70.0434 35.3967 2
69.4418 31.1594 2
67.46 33.6162 2
66.5625 29.6724 2
62.3378 12.6691 2
62.1727 15.8124 2
61.6176 18.7813 2
65.2957 25.7708 2
63.743 28.3641 2
60.8753 21.4946 2
62.4781 24.7742 2
59.9411 23.9288 2
59.2348 12.8247 2
56.3855 13.1938 2
55.8678 10.2823 2
67.6831 35.561 3.97671
67.067 31.6586 3.97602
65.3332 33.9653 3.97685
64.261 30.2786 3.97576
63.1489 26.5402 3.97484
61.7047 28.9239 3.97512
60.7609 14.2592 3.96068
60.5308 25.5318 3.97447
60.46 17.2222 3.95533
59.8798 19.9809 3.96283
59.1905 22.4681 3.97037
58.3921 24.5709 3.97391
54.0308 9.17227 3.97558
57.8705 14.4098 3.95287
54.7738 12.092 3.96574
55.2602 14.7612 3.95294
67.4314 50.1558 0.0359159
57.0206 66.7319 0.0204013
60.6637 63.972 0.0260171
57.5438 63.644 0.0318815
65.6176 54.1464 0.0385657
64.2844 51.3035 0.0309413
60.7636 60.9034 0.0363325
60.5046 58.0707 0.0445256
62.6129 54.9824 0.035804
60.0455 55.6497 0.0332216
55.0705 67.9245 2
59.2094 62.3249 2
55.7943 64.8629 2
56.3085 62.0151 2
65.0719 49.3343 2
63.4675 53.2062 2
62.013 50.5102 2
59.2669 59.4888 2
60.7398 54.1691 2
59.0024 56.8641 2
58.8777 55.0131 2
53.0379 68.9969 3.98296
53.9577 65.9939 3.97107
57.8467 60.802 3.95667
54.6599 63.1189 3.964
55.1755 60.5265 3.97729
62.7558 48.5305 3.97438
61.3545 52.4315 3.97229
59.6815 49.8144 3.97331
57.816 58.1316 3.95732
58.8933 53.7621 3.97274
57.6881 55.6098 3.96351
50.1035 67.8461 3.97582
47.4549 66.5619 3.97507
46.0526 69.1493 3.9818
48.1016 68.5687 2
48.7982 70.7212 3.98797
50.9485 69.9273 2
51.8506 72.1454 4
54.0858 71.1327 2
56.25 69.9759 0
55.0991 7.1438 3.98236
58.3339 6.31992 4
57.0585 8.34567 2
60.3286 7.74926 2
58.9165 9.66152 0.0251684
62.2254 9.30607 0
68.2018 48.0909 0.0350672
69.3982 43.9008 0.033476
66.4773 45.3925 0.0240472
67.3905 41.4773 0.0232091
70.0232 39.6569 0.0330804
72.4864 37.5129 0.0255189
70.1153 37.5237 2
67.6357 39.5041 2
67.0004 43.4352 2
65.1723 41.1774 2
65.8213 47.3561 2
64.2282 44.771 2
67.7425 37.525 3.97662
65.4158 39.3552 3.97678
64.7775 42.9703 3.97655
63.2343 40.8834 3.97648
63.525 46.6098 3.97486
62.2273 44.1149 3.97581
70.0404 35.3965 0.0335537
69.4384 31.159 0.0348458
67.4626 33.6153 0.0234832
66.5655 29.6712 0.0248146
62.3346 12.6614 0.0324522
62.1747 15.8113 0.0449847
61.6081 18.7834 0.0407591
65.2976 25.7696 0.0292096
63.7449 28.3635 0.0249192
62.4792 24.7728 0.025721
60.8766 21.4933 0.0322147
59.9425 23.9272 0.0263436
59.2352 12.8255 0.037785
56.3846 13.1986 0.0356074
55.866 10.28 0.0274
67.6806 35.5617 2
67.0648 31.6596 2
65.3314 33.9657 2
64.2597 30.2791 2
60.759 14.2596 2
60.4551 17.2234 2
59.8765 19.9825 2
63.1474 26.5415 2
61.7044 28.9239 2
59.1916 22.469 2
60.53 25.5323 2
58.3889 24.5737 2
57.8743 14.4062 2
55.2547 14.7533 2
54.0344 9.16607 2
54.769 12.0931 2
65.5152 35.6883 3.97685
64.795 32.2129 3.97614
63.8141 34.2958 3.97632
62.0264 30.7503 3.97551
61.1117 27.2409 3.97473
60.183 29.3148 3.97567
59.2176 15.755 3.95419
58.6905 26.0389 3.97479
58.8313 18.5179 3.95891
58.2804 21.0749 3.96472
57.7196 23.3499 3.97107
57.3244 24.9468 3.97562
52.106 8.17613 3.96701
53.0456 11.085 3.9769
56.5784 15.8675 3.95466
53.7806 13.7857 3.96796
54.2616 16.1492 3.95562
55.0661 67.9294 0.0173304
65.0743 49.3353 0.0281539
55.791 64.8674 0.0298366
59.2122 62.3187 0.0320486
56.3109 62.0136 0.0192941
63.4686 53.2064 0.033381
62.0141 50.5102 0.0262807
59.2463 59.4797 0.0459005
58.9933 56.8608 0.0393318
60.7405 54.1687 0.0294502
58.8682 55.0105 0.0288538
53.0425 68.9938 2
53.9611 65.9934 2
57.8489 60.8062 2
54.6583 63.1197 2
55.1731 60.5255 2
62.755 48.5303 2
61.354 52.4318 2
59.6821 49.8143 2
57.8247 58.1366 2
58.8982 53.7633 2
57.6856 55.6089 2
52.0628 66.9833 3.97349
52.9345 64.1596 3.9692
56.5468 59.383 3.95255
[...]
POINT_DATA 3012
SCALARS Jp_lamdaP float 4
LOOKUP_TABLE default
0.99941 1 1 0.99941
1 1 1 1
0.999428 1 1 0.999428
0.999352 1 1 0.999352
0.999412 1 1 0.999412
0.999378 1 1 0.999378
1.01352 1.01528 1 0.998265
1 1 1 1
1 1 1 1
1 1 1 1
0.999451 1 1 0.999451
1.00968 1.01146 1 0.998243
0.999407 1 1 0.999407
0.999385 1 1 0.999385
0.999436 1 1 0.999436
0.999392 1 1 0.999392
0.999389 1 1 0.999389
0.999441 1 1 0.999441
1.01344 1.01521 1 0.998262
1 1 1 1
0.999343 1 1 0.999343
0.999386 1 1 0.999386
1.00679 1.00862 1 0.99818
1.01195 1.01372 1 0.998261
0.999362 1 1 0.999362
1.01354 1.01532 1 0.998244
1.04314 1.04672 1 0.996581
1 1 1 1
0.999707 1 1 0.999707
0.999719 1 1 0.999719
1 1 1 1
1.00768 1.00945 1 0.998252
0.999405 1 1 0.999405
0.999434 1 1 0.999434
1.01343 1.01496 1 0.998488
1 1 1 1
1.01366 1.01514 1 0.998544
1.00315 1.00486 1 0.9983
1.02957 1.03323 1 0.99646
1 1 1 1
1 1 1 1
0.999696 1 1 0.999696
1 1 1 1
0.999408 1 1 0.999408
1.00093 1.00284 1 0.9981
1 1 1 1
1.00545 1.00705 1 0.998405
0.999426 1 1 0.999426
0.999462 1 1 0.999462
0.999393 1 1 0.999393
1.01344 1.0152 1 0.998264
0.999681 1 1 0.999681
0.999378 1 1 0.999378
0.999376 1 1 0.999376
0.999422 1 1 0.999422
1.00653 1.00838 1 0.99817
1.01356 1.01535 1 0.998242
1.01175 1.01352 1 0.998257
1.04366 1.04724 1 0.996574
1 1 1 1
0.999364 1 1 0.999364
1.00113 1.00263 1 0.998501
1.00464 1.00648 1 0.998168
1.00942 1.01122 1 0.998223
1.04243 1.04615 1 0.996444
1.04421 1.04786 1 0.996511
0.999387 1 1 0.999387
1.00588 1.00761 1 0.998285
1.04189 1.04544 1 0.996607
1.06333 1.06786 1 0.995758
1 1 1 1
1 1 1 1
1 1 1 1
1.00589 1.00764 1 0.99826
1 1 1 1
1 1 1 1
1.01348 1.01532 1 0.998179
0.999779 1 1 0.999779
1.01261 1.01438 1 0.998255
1.0019 1.00328 1.00011 0.998517
1.03215 1.03582 1 0.996455
1 1 1 1
1.00389 1 1.00455 0.999352
1.0111 1.01303 1 0.998092
1.01401 1.01584 1 0.998201
1.05047 1.05451 1 0.99616
1.00038 1.00054 1.00093 0.998908
1.0407 1.04446 1 0.9964
1.02303 1.02637 1.00012 0.996623
1.05341 1.05794 1 0.995711
1 1 1 1
1 1 1 1
1 1 1 1
1 1 1 1
1 1 1 1
0.999705 1 1 0.999705
1.00157 1.00329 1 0.998288
0.999692 1 1 0.999692
1.00637 1.00813 1 0.99825
1 1 1 1
1.00009 1.00194 1 0.998149
1.00293 1.00451 1 0.998425
1.0407 1.04471 1 0.996164
1.0088 1.01039 1 0.998434
1.04707 1.05113 1 0.99614
0.999432 1 1 0.999432
0.99941 1 1 0.99941
0.999384 1 1 0.999384
0.999454 1 1 0.999454
1.00628 1.00813 1 0.998163
1.01156 1.01333 1 0.998256
1.01335 1.01514 1 0.998245
1.04441 1.048 1 0.996567
1 1 1 1
0.999396 1 1 0.999396
1.00072 1.00253 1 0.998195
1.00428 1.00613 1 0.998155
0.999699 1 1 0.999699
1.00733 1.00895 1 0.998392
1.00921 1.01101 1 0.998217
1.04266 1.0464 1 0.996433
1.04127 1.04483 1 0.996599
1.045 1.04865 1 0.996522
1.0629 1.06742 1 0.995768
1.00025 1.00208 1 0.998172
1.00261 1.00442 1 0.998193
1.03695 1.04059 1 0.9965
1.03961 1.04332 1 0.996442
1.04491 1.04861 1 0.996466
1.07764 1.08232 0.999725 0.995951
1 1 1 1
1.06808 1.07256 1 0.995826
1.0003 1.00145 1.00048 0.998375
1.03223 1.03589 1 0.99647
1.05954 1.06413 1 0.995686
1.06659 1.071 1 0.995882
1.00252 1 1.00363 0.998894
1.00775 1.00035 1.00993 0.997492
1 1 1 1
1 1 1 1
1.01376 1.0156 1 0.998183
1 1 1 1
1.00072 1.0018 1.00052 0.998402
1.01191 1.01367 1 0.998262
1.0341 1.03778 1 0.99645
1 1 1 1
1.00411 1 1.00474 0.999376
1.01196 1.01371 1 0.998276
1.01415 1.0158 1 0.99837
1.04942 1.05346 1 0.996157
1.00069 1.00038 1.00158 0.998736
1.04062 1.04438 1 0.9964
1.02216 1.02549 1.00013 0.996619
1.05325 1.05777 1 0.995722
1.00209 1 1.00304 0.99905
1.00471 1 1.00513 0.999584
1.00985 1.00189 1.01005 0.997916
1.05053 1.05464 1 0.996105
1.04771 1.05163 1 0.996277
1.07247 1.07706 1 0.995736
1.0162 1.01775 1.00149 0.996991
1.05829 1.06272 1 0.995829
1.0412 1.04507 1.00057 0.995726
1.06089 1.06548 1 0.995698
1 1 1 1
1 1 1 1
1 1 1 1
1.00318 1 1.00406 0.999118
1 1 1 1
1 1 1 1
1 1 1 1
1.00707 1.00899 1 0.9981
1.00183 1.0037 1 0.998142
1 1 1 1
1 1 1 1
1.00028 1.00213 1 0.998149
1.00346 1.00519 1 0.998272
1.04054 1.04455 1 0.996165
1.00921 1.01114 1 0.998095
1.04557 1.04963 1 0.996138
0.999847 1.0017 1 0.998155
1.0382 1.04221 1 0.996148
1.04375 1.04777 1 0.996168
1.07831 1.08416 0.998497 0.996104
1.04877 1.05287 1 0.996107
1.07904 1.08473 0.998716 0.996026
1 1 1 1
0.999429 1 1 0.999429
1.00026 1.00242 1 0.997851
1.00394 1.00581 1 0.998144
1 1 1 1
1.00906 1.01057 1 0.998503
1.009 1.0108 1 0.998213
1.04282 1.04656 1 0.996422
1.04592 1.04956 1 0.996533
1.04035 1.04391 1 0.996591
1.06204 1.06655 1 0.995778
1.00008 1.00191 1 0.99817
1.00233 1.00416 1 0.99818
1.03754 1.04134 1 0.996349
1.04036 1.04408 1 0.996436
1 1 1 1
1.0022 1.00346 1.00025 0.998505
1.03132 1.03483 1.00003 0.996584
1.04533 1.04905 1 0.996456
1.0767 1.08192 0.99919 0.995978
1.0595 1.06409 1 0.995687
1.06807 1.07252 1 0.995853
1.06615 1.07054 1 0.995891
1.00216 1 1.00328 0.99888
1.00773 1.00119 1.00906 0.99749
1.0366 1.04059 1 0.996167
1.0379 1.04156 1 0.996481
1.07731 1.08273 0.998908 0.996081
1.07644 1.08284 0.998036 0.996037
1.07239 1.07773 0.999085 0.995958
1.07368 1.08308 0.995044 0.996252
1.00068 1.00006 1.002 0.998629
1.06863 1.07357 0.999314 0.996085
1.02083 1.02412 1.00011 0.996676
1.05547 1.06009 1 0.995641
1.06583 1.07048 1 0.995662
1.06396 1.0692 0.998856 0.996238
1.00615 1.0033 1.00572 0.99714
1.00845 1.00013 1.01044 0.997897
1.0079 1.00523 1.00598 0.996701
1.01246 1.01436 1 0.99813
1 1 1 1
1.00394 1 1.00454 0.999401
1.0139 1.01569 1 0.998239
1.04854 1.05259 1 0.996154
1.00067 1.00002 1.00192 0.998731
1.02252 1.02595 1.00004 0.996615
1.04034 1.0441 1 0.996399
1.05438 1.0589 1 0.995733
1.00251 1 1.00344 0.999074
1.00374 1 1.00414 0.999603
1.009 1.00078 1.01032 0.997915
1.04964 1.05375 1 0.9961
1.04652 1.05043 1 0.996277
1.07265 1.07725 1 0.99573
1.01281 1.01465 1.0012 0.996994
1.05919 1.06363 1 0.995822
1.04621 1.05018 1.00051 0.995713
1.06202 1.06658 1 0.99572
1.00227 1 1.00254 0.999733
1.01025 1.0072 1.00562 0.997422
1.01067 1 1.01231 0.998379
1.01157 1.00738 1.00692 0.997263
1.07716 1.08188 0.999839 0.995799
1.06588 1.07042 1 0.995763
1.07222 1.07746 0.999241 0.995885
1.02734 1.03015 1.00122 0.996064
1.06048 1.0648 1 0.995946
1.0551 1.05817 1.00158 0.995526
1.07467 1.07925 1 0.99576
1.00087 1 1.00156 0.999311
0.999916 1 1.00003 0.999886
1 1 1 1
1 1 1 1
1 1 1 1
1.00373 1 1.0044 0.999337
1 1 1 1
1.00329 1 1.0042 0.999098
1 1 1 1
1.01012 1.01205 1 0.998096
1.00411 1.006 1 0.998124
1.04457 1.04862 1 0.996137
1.04045 1.04445 1 0.996166
1.0005 1.00236 1 0.998151
1 1 1 1
0.999903 1.00175 1 0.998155
1.03831 1.04233 1 0.996149
1.04327 1.04728 1 0.996168
1.07809 1.08394 0.998491 0.996102
1.04804 1.05214 1 0.996102
1.08003 1.08562 0.99883 0.996023
1.03673 1.04074 1 0.99615
1.07764 1.08336 0.998638 0.996084
1.07902 1.08479 0.998581 0.996089
1.07059 1.08132 0.993579 0.996476
1.07947 1.08476 0.999204 0.995917
1.07337 1.08548 0.992476 0.996347
0.999994 1.00183 1 0.998169
1.00204 1.00388 1 0.998167
1.03817 1.04213 1 0.9962
1.04115 1.04489 1 0.99643
1 1 1 1
1.00391 1.00524 1.00004 0.99864
1.03059 1.03399 1.00001 0.996698
1.04575 1.04948 1 0.996447
1.07585 1.08166 0.998622 0.996005
1.06788 1.0723 1 0.995879
1.0603 1.06489 1 0.995689
1.066 1.07039 1 0.9959
1.00196 1 1.0031 0.998867
1.00826 1.00212 1.00866 0.997487
1.03679 1.04077 1 0.996177
1.03856 1.04224 1 0.996474
1.07657 1.08234 0.998544 0.996111
1.07705 1.08291 0.998576 0.996007
1.00055 1.00037 1.00156 0.998618
1.02121 1.02442 1.00019 0.996676
1.05665 1.06126 1 0.995656
1.07278 1.07768 0.999522 0.995928
1.07283 1.08304 0.994251 0.996308
1.06518 1.06981 1 0.995669
1.06863 1.07365 0.999237 0.996088
1.06429 1.06952 0.998889 0.996223
1.00794 1.00519 1.00561 0.997139
1.00908 1.00568 1.0067 0.996696
1.00947 1.00021 1.01139 0.997899
1.07717 1.08256 0.99895 0.996069
1.07729 1.08351 0.998157 0.996101
1.07093 1.08051 0.994705 0.996401
1.07255 1.0845 0.992611 0.99634
1.06913 1.07722 0.99623 0.996244
1.06348 1.07953 0.988477 0.996613
1.00837 1.01053 1.00095 0.996916
1.06183 1.07282 0.993297 0.996427
1.04517 1.04956 1 0.995821
1.05936 1.06428 1 0.995379
1.06078 1.06527 1 0.995782
1.05583 1.06482 0.995026 0.996513
1.01187 1.00005 1.01364 0.998203
1.012 1.01313 1.00248 0.996424
1.00931 1.00111 1.0112 0.997028
1.01355 1.01219 1.00507 0.996301
1.04882 1.05293 1 0.996094
1.0032 1 1.00358 0.999621
1.00302 1 1.00392 0.999099
1.00994 1.00011 1.01194 0.997914
1.04554 1.04944 1 0.996278
1.07272 1.07733 1 0.995724
1.00769 1.0098 1.00092 0.996997
1.04753 1.05171 1.00033 0.9957
1.06016 1.06462 1 0.995816
1.06115 1.06569 1 0.995741
1.00164 1 1.00189 0.999747
1.00797 1.00456 1.00597 0.997432
1.01186 1.00009 1.01341 0.998381
1.01015 1.00563 1.00726 0.997262
1.07677 1.08142 0.999909 0.995792
1.06642 1.07096 1 0.995759
1.07178 1.07697 0.999297 0.995883
1.02507 1.028 1.00108 0.996065
1.05982 1.06416 1 0.99592
1.05155 1.05447 1.00173 0.995512
1.07408 1.07854 1 0.995863
1.00006 1 1.00024 0.999823
1.00809 1 1.00938 0.998728
1.0136 1.01437 1.00256 0.996692
1.01591 1.00352 1.01475 0.997627
1.00923 1.00916 1.00304 0.997041
1.07341 1.08168 0.99632 0.99602
1.06642 1.07084 1 0.995872
1.06376 1.07285 0.995427 0.99608
1.02568 1.02807 1.002 0.995689
1.06351 1.06786 0.999895 0.996029
1.04399 1.04788 1.00086 0.995431
1.00142 1 1.00224 0.999179
1.00416 1 1.00558 0.99859
0.999431 1 1.00001 0.999423
1.00004 1 1.00073 0.999314
0.99993 1 1 0.99993
0.999909 1 1.00001 0.999895
0.999999 1 1 0.999999
1 1 1 1
1 1 1 1
1.00256 1 1.00297 0.999586
1 1 1 1
1.0038 1 1.00448 0.999319
1 1 1 1
1.00294 1 1.00386 0.999077
1 1 1 1
1.04699 1.0511 1 0.996096
1.04249 1.0465 1 0.996167
1.0806 1.08606 0.998947 0.996021
1.07778 1.08365 0.998482 0.996101
1.0384 1.04241 1 0.99615
0.999878 1.00173 1 0.998154
1.03689 1.04089 1 0.99615
1.07727 1.08298 0.998633 0.996085
1.07914 1.08489 0.998607 0.996087
1.07011 1.08149 0.992962 0.996492
1.07915 1.0843 0.999339 0.995912
1.07328 1.08533 0.99252 0.996346
1.07704 1.0826 0.998784 0.996073
1.06958 1.08092 0.99298 0.9965
1.07208 1.08324 0.993243 0.996437
1.068 1.08248 0.989896 0.996697
1.07214 1.08401 0.992822 0.9962
1.06807 1.08667 0.986155 0.996675
1.03688 1.04085 1 0.996187
1.03925 1.04294 1 0.996468
1.07583 1.08196 0.998181 0.996141
1.07755 1.08287 0.999105 0.995977
1.00049 1.00076 1.00113 0.998607
1.02218 1.02534 1.00025 0.996678
1.05858 1.06318 1 0.99567
1.0732 1.07762 1 0.995898
1.072 1.08293 0.993515 0.996363
1.06867 1.07377 0.999157 0.99609
1.06415 1.06877 1 0.995675
1.06449 1.0697 0.998919 0.996209
1.01001 1.00747 1.0054 0.997136
1.00883 1.00562 1.00653 0.996691
1.00981 1.00039 1.01155 0.997901
1.07674 1.08212 0.998949 0.996075
1.07655 1.08308 0.99787 0.996099
1.07047 1.08082 0.993951 0.996448
1.07273 1.08409 0.99318 0.996313
1.01278 1.01466 1.00124 0.996916
1.04425 1.04863 1 0.995824
1.05924 1.0641 1.00003 0.995396
1.06983 1.07729 0.996872 0.996192
1.06313 1.07989 0.987781 0.99666
1.06151 1.06605 1 0.995742
1.06228 1.07326 0.993316 0.996427
1.05663 1.0654 0.995199 0.996552
1.01258 1.01387 1.00231 0.996425
1.01115 1.01014 1.00477 0.996247
1.01008 1.0001 1.01179 0.998204
1.0086 1.00079 1.01076 0.997075
1.07028 1.08037 0.994182 0.996452
1.07321 1.08419 0.99348 0.99637
1.06277 1.07767 0.989526 0.996614
1.06118 1.08109 0.984834 0.996692
1.06142 1.07698 0.988934 0.996581
1.0639 1.0837 0.984863 0.996826
1.02561 1.02932 1.00029 0.996107
1.05353 1.07107 0.986793 0.99679
1.04372 1.04847 1 0.995471
1.05454 1.05937 1.00018 0.995262
1.05902 1.06352 0.999958 0.995815
1.05996 1.0697 0.994296 0.99658
1.00803 1.0002 1.00935 0.99849
1.0143 1.00268 1.01434 0.997287
1.01772 1.02059 1.00117 0.996025
1.00865 1.00508 1.00687 0.996711
1.01295 1.00951 1.00736 0.996072
1.00077 1 1.001 0.999761
1.07637 1.08095 0.999977 0.995785
1.01144 1.00021 1.01287 0.998383
1.00622 1.00229 1.00649 0.997443
1.00826 1.00377 1.00723 0.997261
1.06692 1.07146 1 0.995756
1.07134 1.07647 0.999354 0.995881
1.02672 1.03018 1.00057 0.996066
1.05136 1.05407 1.00193 0.995498
1.05938 1.06375 1 0.995894
1.0743 1.07865 1 0.995966
0.999897 1 1.00006 0.999833
1.00828 1 1.00955 0.998739
1.01156 1.01307 1.00181 0.996704
1.01601 1.00305 1.01533 0.997618
1.00962 1.00933 1.00334 0.996955
1.07356 1.08177 0.996385 0.996016
1.06597 1.07039 1 0.995872
1.06316 1.07237 0.995328 0.99607
1.02674 1.02893 1.00219 0.995686
1.06748 1.07187 0.999906 0.996003
1.04418 1.04791 1.00096 0.995476
1.00317 1 1.00418 0.998997
1.01383 1.00094 1.01493 0.997987
1.00662 1.00964 1.00072 0.99629
1.01961 1.00977 1.01253 0.997259
1.01583 1.01684 1.00224 0.996782
1.06694 1.08179 0.989975 0.996259
1.06159 1.06636 0.999498 0.996023
1.05601 1.06786 0.992571 0.9963
1.00675 1.00736 1.00379 0.995618
1.04056 1.04526 1 0.995505
1.00151 1 1.00233 0.999182
1.00267 1 1.00421 0.998471
1.00449 1 1.00593 0.998567
1.00407 1 1.00573 0.998345
1.00191 1 1.00323 0.998689
0.99949 1 1 0.99949
0.999656 1 1.00023 0.999426
0.999961 1 1 0.999961
1.0001 1 1.00079 0.999316
0.999939 1 1 0.999939
1 1 1 1
0.999903 1 1 0.999903
1 1 1 1
1 1 1 1
1.00095 1 1.00113 0.999815
1.00366 1 1.00409 0.999568
1 1 1 1
1 1 1 1
1.00431 1 1.00502 0.999301
1 1 1 1
1.07905 1.08405 0.999477 0.995908
1.07957 1.08531 0.998629 0.996085
1.07331 1.08532 0.992558 0.996346
1.06971 1.08175 0.992338 0.996509
1.07688 1.0826 0.998629 0.996085
1.03715 1.04116 1 0.99615
1.07676 1.0823 0.998807 0.996073
1.06978 1.08084 0.993246 0.996495
1.07226 1.08345 0.993208 0.996437
1.0671 1.08231 0.989181 0.996725
1.07276 1.08473 0.992739 0.996196
1.06811 1.08672 0.986136 0.996697
1.06988 1.08078 0.99342 0.99647
1.0662 1.08202 0.988659 0.996679
1.0687 1.08438 0.988754 0.996755
1.06937 1.08953 0.984607 0.996842
1.0674 1.08569 0.986605 0.996503
1.07184 1.09341 0.98333 0.996893
1.07633 1.08171 0.998946 0.996082
1.07581 1.08262 0.997604 0.996098
1.06996 1.08109 0.993182 0.996494
1.07294 1.0837 0.993758 0.996287
1.01586 1.01735 1.00162 0.996918
1.04094 1.0453 1 0.995825
1.05856 1.06325 1.00018 0.995413
1.07046 1.07735 0.997453 0.99614
1.0628 1.08023 0.987118 0.996706
1.06286 1.07382 0.993341 0.996427
1.06223 1.06682 1 0.995703
1.05723 1.06584 0.995318 0.996591
1.01452 1.01484 1.00327 0.996426
1.00975 1.00844 1.00512 0.996194
1.00936 1 1.01118 0.998206
1.00821 1.0008 1.01031 0.997121
1.07051 1.08061 0.99418 0.996452
1.07287 1.08383 0.99351 0.996354
1.06251 1.07762 0.989302 0.996644
1.06237 1.08134 0.985733 0.996675
1.0255 1.02828 1.0012 0.996103
1.04248 1.04716 1.00003 0.995499
1.0539 1.05852 1.00039 0.995249
1.06232 1.07719 0.989632 0.996532
1.06193 1.08249 0.984075 0.996881
1.05702 1.06151 0.999967 0.995801
1.05457 1.07216 0.986765 0.99679
1.05887 1.06885 0.993988 0.996652
1.01596 1.01845 1.00153 0.996031
1.01098 1.009 1.00592 0.996055
1.00957 1.00407 1.0088 0.99671
1.00844 1.00003 1.00996 0.99847
1.01327 1.00119 1.01478 0.997325
1.0648 1.08067 0.988619 0.996659
1.06513 1.08333 0.986487 0.99667
1.06143 1.08794 0.978695 0.996865
1.05676 1.07902 0.982437 0.996881
1.0255 1.02986 1 0.995772
1.05655 1.07607 0.984849 0.99696
1.02751 1.03211 1.00029 0.995256
1.04559 1.05019 1.00051 0.995118
1.05554 1.06112 0.998913 0.995823
1.00409 1 1.00522 0.998874
1.01315 1 1.01547 0.99772
1.01235 1.00352 1.01184 0.996998
1.01194 1.01386 1.0022 0.99591
1.0135 1.00549 1.01177 0.996231
1.01104 1.00854 1.00659 0.995913
0.999866 1 1.00002 0.999843
1.0088 1 1.01006 0.99875
1.07367 1.08181 0.996454 0.996012
1.01697 1.00236 1.01701 0.997608
1.0083 1.01003 1.00157 0.996716
1.01056 1.01002 1.00368 0.99687
1.06534 1.06976 0.999999 0.995871
1.06277 1.07209 0.995234 0.996059
1.02592 1.0279 1.00241 0.995683
1.04324 1.04712 1.00077 0.995522
1.07179 1.0762 0.999923 0.995978
1.00267 1 1.00367 0.999003
1.01452 1.0004 1.01616 0.997991
1.01009 1.01311 1.0008 0.996231
1.01997 1.00865 1.01401 0.997261
1.01651 1.0177 1.00207 0.996761
1.06562 1.08041 0.990014 0.996255
1.06421 1.06896 0.99954 0.996009
1.05888 1.07057 0.992738 0.996321
1.0093 1.01049 1.00324 0.995596
1.03842 1.04309 1.00006 0.995469
1.00646 1 1.00816 0.998322
1.01787 1.00147 1.01886 0.997566
1.00601 1.00768 1.00224 0.996118
1.02574 1.01821 1.01051 0.996922
1.03284 1.03528 1.00107 0.996576
1.05647 1.08027 0.981157 0.996746
1.06529 1.07145 0.998396 0.995854
1.06569 1.07578 0.994349 0.996249
1.01193 1.01203 1.00433 0.995588
1.01829 1.02315 1 0.995249
1.00091 1 1.00173 0.999184
1.00216 1 1.00368 0.99848
0.999572 1 1.00123 0.998347
1.0026 1 1.00406 0.998544
1.00118 1 1.0025 0.998686
1.00521 1 1.00688 0.998335
1.00095 1 1.00257 0.998382
1.0051 1 1.00684 0.998276
0.999613 1 1.00085 0.998761
0.999489 1 1 0.999489
0.99949 1 1 0.99949
0.999982 1 1 0.999982
0.99943 1 1 0.99943
0.999968 1 1 0.999968
1 1 1 1
0.999949 1 1 0.999949
1 1 1 1
1 1 1 1
0.999938 1 1 0.999938
1.0012 1 1.00141 0.999788
1 1 1 1
1.00394 1 1.00439 0.999551
1 1 1 1
1 1 1 1
1.07334 1.08542 0.992651 0.996191
1.07226 1.08348 0.99318 0.996438
1.06816 1.08676 0.986112 0.99672
1.06614 1.08211 0.988452 0.996753
1.07001 1.08077 0.993533 0.99649
1.07646 1.08196 0.998832 0.996074
1.07017 1.08081 0.993677 0.996453
1.06674 1.082 0.989193 0.996672
1.0681 1.08369 0.988841 0.996741
1.06748 1.08858 0.983717 0.996851
1.06749 1.08556 0.986803 0.996505
1.06891 1.09156 0.982261 0.996928
1.06743 1.08226 0.989613 0.996651
1.06962 1.09126 0.983273 0.996844
1.06996 1.0927 0.982207 0.996926
1.06314 1.09142 0.977089 0.996934
1.07079 1.08089 0.994179 0.996451
1.07255 1.0835 0.993528 0.996337
1.06236 1.07766 0.989094 0.996673
1.06359 1.08166 0.98659 0.996658
1.02668 1.02944 1.00123 0.996098
1.04182 1.0465 1 0.995527
1.05322 1.05764 1.00058 0.995237
1.06309 1.07728 0.990309 0.996482
1.05992 1.0813 0.983245 0.996936
1.05543 1.07302 0.986773 0.996789
1.05547 1.05993 1 0.995786
1.05915 1.06899 0.994053 0.996725
1.01137 1.01362 1.00175 0.996037
1.00966 1.00892 1.00471 0.996038
1.01154 1.00355 1.01129 0.996708
1.00753 1 1.00909 0.998453
1.01231 1.00011 1.01487 0.997363
1.06462 1.08046 0.988641 0.996661
1.06582 1.08397 0.986541 0.996666
1.06222 1.08734 0.979978 0.996858
1.02532 1.02964 1.00003 0.995772
1.0275 1.0321 1.00026 0.995289
1.04423 1.04856 1.00076 0.995107
1.05701 1.07881 0.982866 0.996868
1.05826 1.06429 0.998379 0.995952
1.05332 1.07302 0.984667 0.996926
1.00408 1 1.00514 0.998936
1.01038 1.01117 1.00333 0.995908
1.01101 1.00652 1.00848 0.99601
1.01648 1.00778 1.01247 0.996221
1.01456 1.00576 1.01176 0.997023
1.01421 1.00054 1.01601 0.997686
1.06829 1.08917 0.984054 0.996728
1.06626 1.09467 0.977153 0.996815
1.05531 1.08648 0.974296 0.996935
1.04864 1.07975 0.974044 0.997071
1.01379 1.01796 1.00027 0.99563
1.04949 1.06276 0.990968 0.996513
1.01425 1.01775 1.00165 0.994919
1.03276 1.03689 1.00104 0.994989
1.00017 1 1.00083 0.999341
1.00999 1 1.0118 0.998215
1.01405 1.00337 1.01333 0.997354
1.01766 1.00577 1.01541 0.996467
1.0075 1.00575 1.00588 0.995888
1.01768 1.00675 1.0152 0.995718
1.00228 1 1.00328 0.999008
1.01444 1 1.01648 0.997995
1.06434 1.07908 0.990052 0.99625
1.01925 1.00715 1.0148 0.997262
1.01347 1.01671 1.00064 0.996172
1.01586 1.01738 1.00177 0.996739
1.06692 1.07166 0.999575 0.995995
1.06141 1.07303 0.992807 0.996341
1.01234 1.01407 1.00273 0.995572
1.03609 1.04057 1.00027 0.995432
1.00641 1.00001 1.00809 0.998328
1.01797 1.00098 1.01949 0.997529
1.00633 1.00801 1.00222 0.996118
1.0245 1.01813 1.00936 0.996922
1.03652 1.03955 1.00048 0.996616
1.05907 1.08268 0.981343 0.996793
1.06517 1.07127 0.998399 0.995901
1.06662 1.07605 0.994881 0.996335
1.01369 1.01357 1.00458 0.995553
1.01762 1.02255 1.00003 0.995152
1.00548 1 1.00743 0.998066
1.01651 1.00193 1.01738 0.997224
1.0205 1.02061 1.00378 0.99613
1.03088 1.0316 1.00283 0.996485
1.05828 1.1048 0.960745 0.99703
1.05798 1.07747 0.985079 0.996788
1.04785 1.05299 0.999712 0.995407
1.02324 1.02383 1.00426 0.99518
1.00213 1 1.00364 0.998488
1.00038 1 1.00205 0.998338
0.999845 1 1.00133 0.998515
1.00194 1 1.00326 0.998683
1.00725 1 1.00895 0.998324
0.999699 1 1.00094 0.998756
1.00069 1 1.00228 0.998413
1.00664 1 1.00836 0.998286
0.99926 1 1.00063 0.99863
1.0059 1 1.00774 0.998175
1.0029 1 1.00467 0.998238
0.999073 1 1.00035 0.998729
0.999445 1 1 0.999445
0.999486 1 1 0.999486
0.99999 1 1 0.99999
0.99949 1 1 0.99949
0.999984 1 1 0.999984
1 1 1 1
0.999974 1 1 0.999974
1 1 1 1
1 1 1 1
0.999978 1 1 0.999978
1.00027 1 1.00035 0.999916