# vtk DataFile Version 2.0
Wound Healing Simulation
ASCII
DATASET UNSTRUCTURED_GRID
POINTS 3012 float
69.9759 18.75 4
67.2507 60.3285 4
69.976 18.75 2
73.0099 25.446 4
71.1327 20.9142 4
68.6801 16.6661 4
67.8196 19.9243 3.97053
67.2507 60.3286 2
71.1327 54.0858 4
68.6801 58.3339 4
65.6939 62.2254 4
65.3068 58.9991 3.96982
74.6784 42.3946 4
73.7221 47.2057 4
69.9759 18.75 0
73.0099 25.446 2
68.6801 16.6661 2
71.1327 20.9142 2
67.82 19.9282 2
74.6792 32.6053 4
73.7222 27.7943 4
72.1454 23.1494 4
70.6104 26.2211 3.97112
68.8804 21.9563 3.97101
67.2507 14.6715 4
66.6305 17.9714 3.9696
65.709 21.0538 3.96065
67.2507 60.3285 0
71.1327 54.0858 2
68.6801 58.3339 2
65.694 62.2255 2
65.3081 58.9936 2
72.1454 51.8506 4
69.9759 56.25 4
68.8313 53.1146 3.97104
64.0165 64.0165 4
66.6047 57.1335 3.97057
63.8793 60.7608 3.96672
63.4357 57.7418 3.95792
60.3285 67.2507 4
74.6792 42.3947 2
73.7222 47.2057 2
74.9194 39.9526 4
74.2788 44.8158 4
72.1655 42.0859 3.97366
73.0099 49.554 4
71.246 46.5983 3.97204
73.0099 25.446 0
71.1327 20.9142 0
68.6801 16.6661 0
67.8196 19.9243 0.0294671
74.6792 32.6053 2
73.7222 27.7943 2
67.2508 14.6715 2
72.1455 23.1494 2
70.6096 26.2223 2
66.6316 17.9759 2
68.8804 21.9591 2
65.7094 21.0548 2
74.9197 35.0474 4
74.2794 30.1841 4
72.1822 32.9446 3.97362
71.2751 28.4323 3.97185
69.8111 24.0587 3.97109
68.2922 26.9675 3.96388
66.6835 22.9576 3.96204
65.694 12.7746 4
65.3174 16.105 3.96896
64.6221 19.2269 3.95888
63.6587 22.1228 3.96539
71.1327 54.0858 0
65.6939 62.2254 0
68.6801 58.3339 0
65.3068 58.9991 0.0301804
72.1455 51.8506 2
69.9759 56.25 2
68.8314 53.1112 2
64.0165 64.0165 2
66.6059 57.1282 2
63.8806 60.755 2
63.4274 57.7415 2
62.2254 65.694 4
58.8891 65.4085 3.97393
69.7644 50.9901 3.97107
67.778 55.1685 3.97085
66.5607 52.1828 3.96275
62.3305 62.4216 3.96751
64.5755 56.0011 3.95993
62.183 59.3788 3.95462
61.6332 56.5903 3.96083
58.3339 68.6801 4
60.3285 67.2508 2
73.7221 47.2057 0
74.6784 42.3946 0
74.9197 39.9526 2
74.2794 44.8159 2
72.1644 42.0848 2
73.0099 49.554 2
71.2451 46.5967 2
75 37.5 4
72.4028 39.8027 3.97453
71.7795 44.3531 3.97305
69.7774 41.786 3.96708
70.5712 48.8142 3.97137
68.8595 46.0026 3.96581
74.6792 32.6053 0
73.7222 27.7943 0
67.2507 14.6715 0
72.1454 23.1494 0
70.6104 26.2211 0.0288767
68.8804 21.9563 0.0289899
66.6305 17.9714 0.0303957
65.709 21.0538 0.0393527
74.9197 35.0474 2
74.2794 30.1841 2
72.1808 32.9448 2
71.274 28.4331 2
65.694 12.7745 2
65.3179 16.1103 2
69.8106 24.0605 2
68.2954 26.9682 2
64.6154 19.2288 2
66.6853 22.9586 2
63.659 22.123 2
72.4106 35.2252 3.97445
71.801 30.6776 3.97305
69.815 33.2754 3.96608
68.9224 29.051 3.96446
67.5451 24.932 3.96333
65.9697 27.696 3.97392
64.0165 10.9835 4
64.5183 23.9115 3.96825
63.8824 14.3315 3.96576
63.4341 17.4801 3.95623
62.6841 20.4148 3.9623
61.7177 23.0911 3.97188
60.6787 11.1044 3.97244
57.6031 11.4958 3.96453
72.1454 51.8506 0
69.9759 56.25 0
68.8313 53.1146 0.0289618
64.0165 64.0165 0
63.8793 60.7608 0.0332827
66.6047 57.1335 0.0294342
63.4357 57.7418 0.0420836
62.2255 65.694 2
58.8927 65.4022 2
69.7641 50.9876 2
67.7786 55.164 2
66.5623 52.1821 2
62.332 62.4133 2
64.5698 56.0001 2
62.1723 59.3782 2
61.6347 56.591 2
60.6633 63.972 3.97349
57.0204 66.7316 3.97884
57.5429 63.642 3.96784
67.4272 50.1545 3.96408
65.6125 54.1445 3.9613
64.275 51.3001 3.96939
60.7629 60.9021 3.96274
62.6034 54.9782 3.96443
60.4929 58.0652 3.95557
60.0332 55.6432 3.96693
56.25 69.9759 4
58.3339 68.6801 2
60.3285 67.2507 0
58.9172 9.66246 3.97434
62.2254 9.30607 4
73.0099 49.554 0
74.2788 44.8158 0
71.246 46.5983 0.0279576
72.1655 42.0859 0.0263435
74.9194 39.9526 0
75 37.5 2
72.4021 39.802 2
71.7788 44.3516 2
69.7799 41.7857 2
70.5707 48.8122 2
68.8638 46.0022 2
72.4863 37.5128 3.97434
70.0214 39.6567 3.96709
69.3951 43.9002 3.96674
67.3799 41.476 3.97672
68.1971 48.0897 3.96488
66.4661 45.3903 3.97615
74.9197 35.0474 0
74.2794 30.1841 0
72.1822 32.9446 0.0263779
71.2751 28.4323 0.0281517
65.694 12.7746 0
65.3174 16.105 0.0310391
69.8111 24.0587 0.0289113
68.2922 26.9675 0.0361237
66.6835 22.9576 0.0379611
64.6221 19.2269 0.0411222
63.6587 22.1228 0.034608
72.4099 35.225 2
71.8003 30.6782 2
69.8185 33.2757 2
68.9273 29.0513 2
64.0165 10.9835 2
63.8839 14.3388 2
63.438 17.4781 2
67.5478 24.9328 2
65.9672 27.6972 2
62.6892 20.4134 2
64.5169 23.9122 2
61.7172 23.0922 2
60.6816 11.1101 2
57.6018 11.4875 2
70.0378 35.3964 3.96655
69.4346 31.1592 3.96518
67.4505 33.6162 3.97669
66.5537 29.6727 3.97528
65.2878 25.7714 3.97122
63.7297 28.3656 3.97506
62.3342 12.6612 3.9672
62.4631 24.7771 3.97443
62.1723 15.8118 3.95454
61.5946 18.7875 3.95913
60.8588 21.4985 3.96795
59.9218 23.9338 3.97359
59.2349 12.8258 3.96336
55.8684 10.2771 3.97349
56.381 13.2001 3.96361
69.7644 50.9901 0.0289265
62.2254 65.694 0
58.8891 65.4085 0.0260652
67.778 55.1685 0.029152
66.5607 52.1828 0.0372453
62.3305 62.4216 0.0324895
62.183 59.3788 0.0453768
64.5755 56.0011 0.0400727
61.6332 56.5903 0.039169
60.6668 63.9655 2
57.0245 66.7264 2
57.5454 63.6492 2
67.4289 50.1536 2
65.6116 54.1436 2
64.2733 51.2993 2
60.7551 60.9042 2
62.6051 54.9789 2
60.484 58.0633 2
60.0325 55.6437 2
55.066 67.9293 3.98238
59.2118 62.3176 3.96813
55.7899 64.8643 3.97004
56.3098 62.011 3.98107
65.0659 49.3323 3.97223
63.4587 53.2025 3.96682
62.0008 50.5041 3.97386
59.238 59.4753 3.9537
60.7277 54.1624 3.97086
58.9771 56.8529 3.96066
58.8526 55.0024 3.97128
48.0978 68.5676 3.97922
50.9441 69.9304 3.98631
54.0858 71.1327 4
56.25 69.976 2
58.3339 68.6801 0
57.0557 8.33846 3.97943
60.3285 7.74928 4
58.9201 9.66791 2
62.2255 9.30602 2
70.5712 48.8142 0.0286269
71.7795 44.3531 0.0269539
68.8595 46.0026 0.0341915
69.7774 41.786 0.0329166
72.4028 39.8027 0.0254741
75 37.5 0
72.485 37.5123 2
70.0245 39.6565 2
69.3971 43.8998 2
67.3771 41.4752 2
68.1983 48.0888 2
66.4623 45.389 2
70.1097 37.5235 3.96691
67.6278 39.5038 3.97664
66.9917 43.4345 3.97678
65.1625 41.1765 3.97652
65.8141 47.3547 3.97464
64.2178 44.7699 3.97601
72.4106 35.2252 0.0255507
71.801 30.6776 0.0269509
69.815 33.2754 0.0339227
68.9224 29.051 0.0355447
64.0165 10.9835 0
63.8824 14.3315 0.0342401
63.4341 17.4801 0.0437745
67.5451 24.932 0.0366724
65.9697 27.696 0.0260816
64.5183 23.9115 0.0317547
62.6841 20.4148 0.0377007
61.7177 23.0911 0.0281237
60.6787 11.1044 0.0275621
57.6031 11.4958 0.0354714
70.0408 35.3966 2
69.438 31.1596 2
67.448 33.617 2
66.5506 29.6738 2
62.3371 12.6688 2
62.1703 15.8126 2
61.6045 18.7845 2
65.2859 25.7723 2
63.7281 28.366 2
60.858 21.4996 2
62.4623 24.7783 2
59.9204 23.9353 2
59.234 12.8243 2
56.3796 13.1926 2
55.869 10.2795 2
67.6716 35.5616 3.97669
67.0546 31.6599 3.97618
65.3212 33.9658 3.97678
64.2472 30.2799 3.97565
63.1331 26.5438 3.97468
61.6861 28.9274 3.97508
60.7593 14.2595 3.95943
60.5112 25.5372 3.97428
60.4447 17.2268 3.95521
59.8607 19.9869 3.96311
59.169 22.4751 3.97039
58.3682 24.5791 3.97391
54.0367 9.15909 3.98504
57.8634 14.4124 3.95183
54.7759 12.0899 3.97167
55.2497 14.7626 3.95218
67.4272 50.1545 0.0359243
57.0204 66.7316 0.0211615
60.6633 63.972 0.0265094
57.5429 63.642 0.0321611
65.6125 54.1445 0.0387027
64.275 51.3001 0.0306127
60.7629 60.9021 0.0372618
60.4929 58.0652 0.0444262
62.6034 54.9782 0.0355657
60.0332 55.6432 0.033066
55.0705 67.9241 2
59.2089 62.3242 2
55.7934 64.8594 2
56.307 62.013 2
65.0636 49.3312 2
63.458 53.2022 2
61.9999 50.504 2
59.2612 59.484 2
60.7268 54.1626 2
58.9853 56.8558 2
58.8619 55.0049 2
53.0378 68.9967 3.98284
53.9568 65.991 3.97091
57.8444 60.7997 3.95546
54.6588 63.1153 3.96432
55.1724 60.5238 3.97686
62.7418 48.5259 3.97431
61.3412 52.4252 3.97245
59.6637 49.8066 3.97309
57.8055 58.1251 3.95707
58.8772 53.7536 3.97264
57.6689 55.6002 3.96342
50.1034 67.8457 3.97531
47.4545 66.5611 3.97507
46.0525 69.149 3.98156
48.1018 68.5684 2
48.7981 70.7212 3.98781
50.9488 69.927 2
51.8506 72.1454 4
54.0858 71.1327 2
56.25 69.9759 0
55.101 7.14068 3.99033
58.3339 6.31992 4
57.0594 8.34342 2
60.3286 7.74926 2
58.9172 9.66246 0.025656
62.2254 9.30607 0
68.1971 48.0897 0.0351187
69.3951 43.9002 0.0332555
66.4661 45.3903 0.0238512
67.3799 41.476 0.0232763
70.0214 39.6567 0.0329139
72.4863 37.5128 0.025661
70.1134 37.5235 2
67.625 39.5034 2
66.9896 43.4333 2
65.1616 41.1764 2
65.8116 47.3535 2
64.2167 44.7696 2
67.7316 37.5251 3.97658
65.4047 39.3546 3.9767
64.7665 42.9691 3.97644
63.2205 40.8824 3.97641
63.5117 46.6074 3.97487
62.2133 44.1129 3.97578
70.0378 35.3964 0.0334454
69.4346 31.1592 0.0348224
67.4505 33.6162 0.0233091
66.5537 29.6727 0.0247238
62.3342 12.6612 0.032801
62.1723 15.8118 0.0454609
61.5946 18.7875 0.0408693
65.2878 25.7714 0.0287761
63.7297 28.3656 0.0249374
62.4631 24.7771 0.0255719
60.8588 21.4985 0.0320452
59.9218 23.9338 0.0264107
59.2349 12.8258 0.0366427
56.381 13.2001 0.0363942
55.8684 10.2771 0.0265062
67.6693 35.5622 2
67.0524 31.6608 2
65.3195 33.9661 2
64.2461 30.2803 2
60.7569 14.2597 2
60.4379 17.2276 2
59.8587 19.988 2
63.1316 26.5449 2
61.6859 28.9273 2
59.1701 22.4759 2
60.5102 25.5377 2
58.3649 24.5818 2
57.8654 14.4071 2
55.2421 14.7525 2
54.04 9.15454 2
54.7681 12.0897 2
65.5036 35.6889 3.9767
64.7823 32.2138 3.97605
63.8004 34.2966 3.97622
62.0094 30.7529 3.97541
61.0922 27.2449 3.97465
60.1616 29.3193 3.97558
59.2049 15.7591 3.95392
58.6663 26.0454 3.97465
58.8085 18.5252 3.95927
58.2568 21.0828 3.96474
57.6953 23.3584 3.97116
57.2975 24.9561 3.97542
52.1036 8.18212 3.96839
53.0541 11.0632 3.97719
56.5599 15.8736 3.95476
53.7773 13.7786 3.97082
54.2429 16.1474 3.95699
55.066 67.9293 0.0176249
65.0659 49.3323 0.0277722
55.7899 64.8643 0.0299596
59.2118 62.3176 0.0318656
56.3098 62.011 0.0189348
63.4587 53.2025 0.0331773
62.0008 50.5041 0.0261378
59.238 59.4753 0.0463009
58.9771 56.8529 0.0393447
60.7277 54.1624 0.0291409
58.8526 55.0024 0.028718
53.0427 68.9935 2
53.9605 65.9912 2
57.8462 60.8049 2
54.6568 63.1157 2
55.1699 60.5224 2
62.7411 48.5255 2
61.3407 52.4254 2
59.6643 49.8065 2
57.814 58.1301 2
58.8819 53.7545 2
57.6661 55.5991 2
52.0624 66.9824 3.97358
52.9332 64.1552 3.96895
56.5388 59.3776 3.95168
[...]
POINT_DATA 3012
SCALARS rho_c_phif_kappa float 4
LOOKUP_TABLE default
1000 0 1.00246 0.274254
1000 0 1.00196 0.274609
1000 0 1.00246 0.274523
1000 0 1.00245 0.274849
1000 0 1.00246 0.274432
1000 0 1.00246 0.274152
1012.05 1.3197e-08 1.00291 0.272153
1000 0 1.00196 0.274599
1000 0 1.00196 0.275569
1000 0 1.00196 0.275108
1000 0 1.00246 0.27408
1012 1.29206e-08 1.00315 0.271919
1000 0 1.00244 0.275483
1000 0 1.00245 0.276374
1000 0 1.00246 0.274782
1000 0 1.00245 0.275492
1000 0 1.00246 0.274322
1000 0 1.00245 0.274836
1011.88 1.32421e-08 1.00291 0.272028
1000 0 1.00196 0.275486
1000 0 1.00245 0.274984
1000 0 1.00245 0.274651
1012.01 1.33679e-08 1.0029 0.273906
1012.03 1.32644e-08 1.0029 0.272813
1000 0 1.00246 0.274139
1012.08 1.31331e-08 1.00291 0.271441
1013.5 1.54379e-08 1.00337 0.265699
1000 0 1.00196 0.27461
1000 0 1.00221 0.275088
1000 0 1.00221 0.274688
1000 0 1.00196 0.274689
1011.94 1.29741e-08 1.00315 0.271912
1000 0 1.00245 0.274773
1000 0 1.00246 0.274241
1012.05 1.32908e-08 1.0029 0.272242
1000 0 1.00197 0.275525
1011.99 1.30274e-08 1.0029 0.27184
1012.05 1.28721e-08 1.00316 0.271966
1013.51 1.53624e-08 1.00338 0.264062
1000 0 1.00197 0.275915
1000 0 1.00196 0.275504
1000 0 1.0022 0.275869
1000 0 1.00196 0.275566
1000 0 1.00245 0.27654
1011.97 1.34008e-08 1.00313 0.274053
1000 0 1.00196 0.27619
1012.05 1.34363e-08 1.00289 0.27348
1000 0 1.00245 0.276155
1000 0 1.00245 0.275243
1000 0 1.00246 0.274482
1012.05 1.3197e-08 1.00291 0.271921
1000 0 1.0022 0.275869
1000 0 1.00245 0.275687
1000 0 1.00247 0.274255
1000 0 1.00245 0.27519
1011.75 1.34084e-08 1.0029 0.273587
1011.97 1.31817e-08 1.00291 0.271338
1011.81 1.33062e-08 1.0029 0.2726
1013.52 1.54333e-08 1.00337 0.265552
1000 0 1.00196 0.275565
1000 0 1.00245 0.275097
1011.95 1.33697e-08 1.00288 0.274501
1012 1.33896e-08 1.0029 0.2742
1012.02 1.33251e-08 1.0029 0.273429
1013.48 1.54604e-08 1.00336 0.268742
1013.49 1.54475e-08 1.00336 0.266197
1000 0 1.00247 0.274324
1012.13 1.30808e-08 1.00292 0.270853
1013.52 1.54282e-08 1.00338 0.264548
1013.43 1.54238e-08 1.00336 0.258083
1000 0 1.00196 0.274801
1000 0 1.00196 0.274933
1000 0 1.00196 0.274558
1012 1.29206e-08 1.00315 0.271898
1000 0 1.00196 0.275002
1000 0 1.00196 0.274647
1011.84 1.33327e-08 1.00314 0.272468
1000 0 1.00222 0.275041
1011.88 1.30765e-08 1.00315 0.27197
1012.04 1.29317e-08 1.00304 0.271882
1013.52 1.53629e-08 1.00338 0.26416
1000 0 1.00197 0.275458
1012.38 1.29364e-08 1.0032 0.27312
1012.07 1.33808e-08 1.00314 0.272885
1012.02 1.31636e-08 1.00315 0.272147
1013.5 1.54549e-08 1.00337 0.266
1012.13 1.28623e-08 1.00292 0.271929
1013.5 1.53922e-08 1.00338 0.264264
1013.54 1.536e-08 1.00339 0.264687
1013.46 1.54568e-08 1.00337 0.257499
1000 0 1.00197 0.276293
1000 0 1.00197 0.276152
1000 0 1.00196 0.275282
1000 0 1.00196 0.275483
1000 0 1.00196 0.275548
1000 0 1.0022 0.275984
1011.62 1.3439e-08 1.00301 0.273984
1000 0 1.00221 0.275662
1011.8 1.34769e-08 1.00302 0.273708
1000 0 1.00196 0.275567
1011.95 1.33738e-08 1.00313 0.274263
1012.03 1.34235e-08 1.00289 0.273686
1013.46 1.54561e-08 1.00337 0.270553
1012.06 1.34277e-08 1.00289 0.273236
1013.48 1.54735e-08 1.00337 0.269648
1000 0 1.00244 0.275446
1000 0 1.00244 0.276426
1000 0 1.00247 0.274363
1000 0 1.00245 0.275733
1012.01 1.33679e-08 1.0029 0.27328
1012.03 1.32644e-08 1.0029 0.272399
1012.08 1.31331e-08 1.00291 0.271146
1013.5 1.54379e-08 1.00337 0.265391
1000 0 1.00196 0.275532
1000 0 1.00245 0.275799
1011.62 1.34085e-08 1.00301 0.274073
1011.74 1.34307e-08 1.0029 0.273884
1000 0 1.00222 0.274264
1012.07 1.31354e-08 1.00292 0.271156
1011.78 1.33656e-08 1.0029 0.273137
1013.5 1.54533e-08 1.00336 0.268663
1013.53 1.54264e-08 1.00338 0.264137
1013.51 1.54417e-08 1.00336 0.266362
1013.43 1.5425e-08 1.00336 0.258114
1011.92 1.33598e-08 1.00312 0.274302
1012 1.33881e-08 1.0029 0.274325
1013.45 1.54475e-08 1.00335 0.270428
1013.47 1.54615e-08 1.00335 0.269469
1013.48 1.54559e-08 1.00336 0.267445
1013.42 1.54007e-08 1.00336 0.263771
1000 0 1.00197 0.275034
1013.42 1.54121e-08 1.00336 0.259239
1012.19 1.3044e-08 1.00318 0.271226
1013.54 1.54213e-08 1.00339 0.263074
1013.45 1.54384e-08 1.00336 0.256954
1013.36 1.53365e-08 1.00335 0.254743
1012.33 1.30235e-08 1.00319 0.271974
1013.69 1.54835e-08 1.00341 0.269227
1000 0 1.00196 0.274984
1000 0 1.00196 0.274649
1012.05 1.32908e-08 1.00314 0.272492
1000 0 1.00197 0.275355
1012.05 1.28721e-08 1.00316 0.271828
1011.99 1.30274e-08 1.00315 0.271995
1013.51 1.53624e-08 1.00338 0.26428
1000 0 1.00197 0.275662
1012.46 1.29849e-08 1.0032 0.273401
1011.84 1.34209e-08 1.00302 0.272804
1011.85 1.32085e-08 1.00302 0.272066
1013.52 1.54492e-08 1.00337 0.266016
1012.15 1.29267e-08 1.00317 0.271913
1013.51 1.53908e-08 1.00338 0.264394
1013.55 1.53583e-08 1.00339 0.264991
1013.47 1.54591e-08 1.00337 0.257117
1012.22 1.2895e-08 1.00319 0.272308
1012.49 1.2984e-08 1.00321 0.273938
1013.71 1.54633e-08 1.00341 0.271107
1013.49 1.54716e-08 1.00337 0.26723
1013.5 1.54269e-08 1.00338 0.265045
1013.42 1.53963e-08 1.00336 0.258939
1013.59 1.53933e-08 1.0034 0.266465
1013.45 1.54347e-08 1.00336 0.256334
1013.48 1.54738e-08 1.00337 0.257808
1013.4 1.53783e-08 1.00336 0.25448
1000 0 1.00197 0.276474
1000 0 1.00197 0.276402
1000 0 1.00197 0.276295
1012.44 1.30452e-08 1.00321 0.272959
1000 0 1.00197 0.275485
1000 0 1.00196 0.275152
1000 0 1.00196 0.2754
1012.05 1.34363e-08 1.00314 0.273972
1011.97 1.34008e-08 1.00313 0.274281
1000 0 1.00196 0.275566
1000 0 1.00196 0.275571
1011.84 1.34094e-08 1.00313 0.274285
1011.94 1.34611e-08 1.00301 0.273918
1013.5 1.54498e-08 1.00336 0.27056
1011.8 1.34676e-08 1.00314 0.273533
1013.51 1.54656e-08 1.00337 0.269579
1011.91 1.33527e-08 1.00312 0.274294
1013.46 1.54465e-08 1.00336 0.270875
1013.48 1.54642e-08 1.00337 0.270174
1013.42 1.53963e-08 1.00335 0.267672
1013.49 1.54766e-08 1.00337 0.26857
1013.41 1.53961e-08 1.00335 0.265162
1000 0 1.00196 0.275551
1000 0 1.00245 0.276554
1011.95 1.33697e-08 1.00314 0.274044
1012 1.33896e-08 1.0029 0.273572
1000 0 1.00197 0.274914
1012.13 1.30808e-08 1.00292 0.271487
1012.02 1.33251e-08 1.0029 0.272857
1013.48 1.54604e-08 1.00336 0.26856
1013.49 1.54475e-08 1.00337 0.266513
1013.52 1.54282e-08 1.00338 0.263839
1013.43 1.54238e-08 1.00336 0.258148
1011.8 1.33954e-08 1.00312 0.274289
1011.91 1.34262e-08 1.0029 0.274039
1013.49 1.54414e-08 1.00336 0.270299
1013.5 1.5454e-08 1.00336 0.269531
1000 0 1.00197 0.274888
1012.17 1.31085e-08 1.00305 0.271427
1013.55 1.54193e-08 1.00338 0.263185
1013.51 1.54494e-08 1.00336 0.26735
1013.41 1.54015e-08 1.00335 0.263447
1013.44 1.54389e-08 1.00336 0.256992
1013.42 1.54131e-08 1.00336 0.259491
1013.36 1.53364e-08 1.00335 0.254793
1012.39 1.30757e-08 1.00319 0.271902
1013.67 1.54743e-08 1.00341 0.269232
1013.45 1.54428e-08 1.00336 0.270877
1013.47 1.54568e-08 1.00335 0.26994
1013.42 1.54009e-08 1.00336 0.267407
1013.41 1.53981e-08 1.00335 0.264736
1013.42 1.54049e-08 1.00336 0.261251
1013.34 1.5317e-08 1.00334 0.260315
1012.25 1.30238e-08 1.00318 0.271289
1013.35 1.53265e-08 1.00335 0.25606
1013.58 1.54287e-08 1.00339 0.264425
1013.45 1.54497e-08 1.00337 0.255511
1013.37 1.53507e-08 1.00336 0.253769
1013.34 1.53208e-08 1.00335 0.253513
1013.65 1.54612e-08 1.0034 0.267829
1013.72 1.55152e-08 1.00341 0.270507
1013.54 1.55685e-08 1.00339 0.266328
1012.07 1.33808e-08 1.00314 0.272981
1000 0 1.00197 0.275961
1012.38 1.29364e-08 1.0032 0.2738
1012.02 1.31636e-08 1.00315 0.27216
1013.5 1.54549e-08 1.00337 0.266034
1012.13 1.28623e-08 1.00317 0.271848
1013.54 1.536e-08 1.00339 0.265247
1013.5 1.53922e-08 1.00338 0.264547
1013.46 1.54568e-08 1.00337 0.256719
1012.31 1.29413e-08 1.00319 0.272497
1012.56 1.30236e-08 1.00321 0.274214
1013.69 1.54556e-08 1.00341 0.271212
1013.51 1.54654e-08 1.00337 0.267231
1013.51 1.5423e-08 1.00338 0.265116
1013.41 1.53978e-08 1.00336 0.258915
1013.6 1.53903e-08 1.0034 0.266875
1013.45 1.54361e-08 1.00336 0.256532
1013.48 1.5475e-08 1.00337 0.257714
1013.4 1.53791e-08 1.00336 0.253973
1012.63 1.30332e-08 1.00322 0.274554
1013.65 1.5429e-08 1.0034 0.269388
1013.73 1.54872e-08 1.00341 0.272218
1013.56 1.55897e-08 1.00339 0.268535
1013.41 1.53831e-08 1.00335 0.260635
1013.43 1.54149e-08 1.00336 0.257451
1013.35 1.53367e-08 1.00335 0.255333
1013.5 1.55021e-08 1.00338 0.260539
1013.37 1.53464e-08 1.00335 0.251948
1013.4 1.53798e-08 1.00337 0.253674
1013.38 1.53693e-08 1.00336 0.253177
1013.77 1.55434e-08 1.00341 0.275217
1012.83 1.31193e-08 1.00324 0.274885
1000 0 1.00197 0.276557
1000 0 1.00197 0.276544
1000 0 1.00197 0.2765
1012.55 1.30939e-08 1.00322 0.273461
1000 0 1.00197 0.275834
1012.53 1.30959e-08 1.00321 0.272627
1000 0 1.00197 0.275308
1012.06 1.34277e-08 1.00314 0.273533
1012.03 1.34235e-08 1.00313 0.274186
1013.48 1.54735e-08 1.00337 0.269506
1013.46 1.54561e-08 1.00336 0.270537
1011.95 1.33738e-08 1.00313 0.27431
1000 0 1.00196 0.275564
1011.51 1.33913e-08 1.00312 0.274288
1013.46 1.54409e-08 1.00336 0.270872
1013.48 1.5458e-08 1.00337 0.270128
1013.41 1.53968e-08 1.00335 0.267651
1013.51 1.54701e-08 1.00337 0.268554
1013.41 1.5397e-08 1.00335 0.265239
1013.44 1.54419e-08 1.00336 0.270979
1013.41 1.53919e-08 1.00335 0.268127
1013.41 1.53981e-08 1.00335 0.266841
1013.35 1.53404e-08 1.00334 0.265619
1013.41 1.53905e-08 1.00335 0.262982
1013.35 1.53274e-08 1.00334 0.262703
1011.92 1.33598e-08 1.00312 0.274267
1012 1.33881e-08 1.0029 0.273705
1013.45 1.54475e-08 1.00336 0.270192
1013.47 1.54615e-08 1.00336 0.269544
1000 0 1.00197 0.274714
1012.19 1.3044e-08 1.00292 0.271278
1013.54 1.54213e-08 1.00338 0.263337
1013.48 1.54559e-08 1.00336 0.267234
1013.42 1.54007e-08 1.00335 0.263123
1013.42 1.54121e-08 1.00336 0.259746
1013.45 1.54384e-08 1.00336 0.256995
1013.36 1.53365e-08 1.00335 0.254827
1012.33 1.30235e-08 1.00319 0.271788
1013.69 1.54835e-08 1.00341 0.26896
1013.45 1.54374e-08 1.00336 0.270733
1013.47 1.54507e-08 1.00335 0.269982
1013.41 1.54013e-08 1.00336 0.267312
1013.41 1.5399e-08 1.00335 0.265018
1012.26 1.30826e-08 1.00318 0.271369
1013.58 1.54216e-08 1.00339 0.264104
1013.45 1.5452e-08 1.00337 0.255596
1013.42 1.54058e-08 1.00336 0.261393
1013.34 1.53167e-08 1.00334 0.260008
1013.37 1.53513e-08 1.00335 0.253556
1013.35 1.53264e-08 1.00335 0.256078
1013.34 1.53206e-08 1.00335 0.253261
1013.65 1.54608e-08 1.0034 0.268005
1013.54 1.55655e-08 1.00339 0.266234
1013.71 1.5515e-08 1.00341 0.270435
1013.42 1.53959e-08 1.00335 0.268222
1013.41 1.53979e-08 1.00335 0.266153
1013.35 1.5334e-08 1.00334 0.265636
1013.34 1.53169e-08 1.00334 0.261714
1013.35 1.53187e-08 1.00334 0.257459
1013.33 1.52992e-08 1.00334 0.257587
1013.62 1.54448e-08 1.0034 0.266423
1013.33 1.53085e-08 1.00334 0.253822
1013.47 1.54706e-08 1.00337 0.256512
1013.38 1.53549e-08 1.00336 0.250439
1013.36 1.53388e-08 1.00335 0.251806
1013.32 1.52725e-08 1.00334 0.251373
1013.74 1.5536e-08 1.00341 0.272326
1013.52 1.55366e-08 1.00338 0.263451
1013.56 1.55884e-08 1.00339 0.269036
1013.48 1.54832e-08 1.00338 0.262864
1013.49 1.54716e-08 1.00337 0.267237
1012.49 1.2984e-08 1.00321 0.274387
1012.22 1.2895e-08 1.00319 0.272701
1013.71 1.54633e-08 1.00341 0.271334
1013.5 1.54269e-08 1.00338 0.265189
1013.42 1.53963e-08 1.00336 0.258891
1013.59 1.53933e-08 1.0034 0.267389
1013.48 1.54738e-08 1.00337 0.257689
1013.45 1.54347e-08 1.00336 0.25672
1013.4 1.53783e-08 1.00336 0.253536
1012.66 1.30659e-08 1.00322 0.274697
1013.64 1.54286e-08 1.0034 0.269592
1013.72 1.54846e-08 1.00341 0.272383
1013.57 1.55932e-08 1.00339 0.268726
1013.41 1.53835e-08 1.00335 0.260629
1013.43 1.54165e-08 1.00336 0.257437
1013.35 1.53359e-08 1.00335 0.255341
1013.5 1.55073e-08 1.00338 0.260672
1013.37 1.53473e-08 1.00335 0.252289
1013.4 1.53806e-08 1.00336 0.253392
1013.38 1.53703e-08 1.00336 0.253792
1012.72 1.30745e-08 1.00323 0.274806
1013.75 1.54986e-08 1.00341 0.27353
1013.54 1.55512e-08 1.00339 0.264734
1013.57 1.56054e-08 1.0034 0.270577
1013.51 1.55116e-08 1.00339 0.26543
1013.35 1.53587e-08 1.00334 0.256995
1013.35 1.53259e-08 1.00335 0.253094
1013.33 1.53412e-08 1.00334 0.252131
1013.41 1.53984e-08 1.00337 0.253693
1013.36 1.5366e-08 1.00335 0.249214
1013.37 1.53755e-08 1.00336 0.250889
1013.76 1.5525e-08 1.00341 0.27506
1013.57 1.56359e-08 1.0034 0.274068
1013.78 1.55644e-08 1.00342 0.27548
1013.77 1.55437e-08 1.00341 0.275273
1012.91 1.317e-08 1.00298 0.275293
1012.84 1.31448e-08 1.00311 0.275266
1000 0 1.00251 0.275848
1000 0 1.00197 0.27657
1000 0 1.00197 0.276562
1012.72 1.31655e-08 1.00323 0.274247
1000 0 1.00197 0.276222
1012.65 1.31409e-08 1.00322 0.273364
1000 0 1.00197 0.275696
1012.44 1.30452e-08 1.00321 0.272459
1000 0 1.00197 0.275156
1013.49 1.54766e-08 1.00337 0.268534
1013.48 1.54642e-08 1.00337 0.270118
1013.41 1.53961e-08 1.00335 0.265229
1013.42 1.53963e-08 1.00335 0.267637
1013.46 1.54465e-08 1.00336 0.270863
1011.91 1.33527e-08 1.00312 0.27427
1013.48 1.54357e-08 1.00336 0.27098
1013.41 1.53923e-08 1.00335 0.268123
1013.41 1.53988e-08 1.00335 0.266724
1013.35 1.53403e-08 1.00334 0.265563
1013.41 1.53914e-08 1.00335 0.262969
1013.35 1.53272e-08 1.00334 0.262673
1013.42 1.53906e-08 1.00335 0.268256
1013.36 1.53509e-08 1.00334 0.266392
1013.35 1.53315e-08 1.00334 0.264787
1013.34 1.53506e-08 1.00334 0.264855
1013.34 1.5325e-08 1.00334 0.259214
1013.33 1.53088e-08 1.00334 0.260201
1013.45 1.54428e-08 1.00336 0.2706
1013.47 1.54568e-08 1.00336 0.270104
1013.42 1.54009e-08 1.00335 0.26714
1013.41 1.53981e-08 1.00336 0.265337
1012.25 1.30238e-08 1.00318 0.27146
1013.58 1.54287e-08 1.00339 0.26367
1013.45 1.54497e-08 1.00337 0.255658
1013.42 1.54049e-08 1.00336 0.261547
1013.34 1.5317e-08 1.00334 0.2597
1013.35 1.53265e-08 1.00335 0.256094
1013.37 1.53507e-08 1.00335 0.253394
1013.34 1.53208e-08 1.00335 0.253087
1013.65 1.54612e-08 1.0034 0.268217
1013.54 1.55685e-08 1.00339 0.266372
1013.72 1.55152e-08 1.00341 0.270535
1013.42 1.53963e-08 1.00335 0.268109
1013.41 1.53986e-08 1.00335 0.266253
1013.35 1.53337e-08 1.00334 0.265416
1013.34 1.53166e-08 1.00334 0.262018
1013.62 1.54418e-08 1.0034 0.266023
1013.47 1.54722e-08 1.00337 0.256322
1013.38 1.53557e-08 1.00336 0.250668
1013.35 1.53184e-08 1.00335 0.257768
1013.33 1.52992e-08 1.00334 0.257329
1013.36 1.53391e-08 1.00335 0.251575
1013.33 1.53085e-08 1.00334 0.253837
1013.32 1.5272e-08 1.00334 0.251703
1013.52 1.55385e-08 1.00338 0.263071
1013.48 1.54821e-08 1.00338 0.262844
1013.74 1.55333e-08 1.00341 0.272211
1013.56 1.55901e-08 1.00339 0.269849
1013.36 1.5352e-08 1.00334 0.266327
1013.35 1.53229e-08 1.00334 0.264001
1013.34 1.53091e-08 1.00334 0.264792
1013.33 1.53115e-08 1.00334 0.259017
1013.33 1.53148e-08 1.00334 0.255294
1013.32 1.52795e-08 1.00334 0.255771
1013.5 1.55034e-08 1.00338 0.259587
1013.32 1.52667e-08 1.00334 0.251214
1013.39 1.53645e-08 1.00336 0.249776
1013.36 1.53553e-08 1.00335 0.247445
1013.33 1.52797e-08 1.00335 0.25044
1013.3 1.51882e-08 1.00334 0.250247
1013.76 1.55545e-08 1.00341 0.273285
1013.56 1.56003e-08 1.00339 0.270273
1013.44 1.54409e-08 1.00338 0.258626
1013.51 1.55166e-08 1.00339 0.266729
1013.46 1.5454e-08 1.00338 0.25913
1012.63 1.30332e-08 1.00322 0.274901
1013.41 1.53831e-08 1.00335 0.260633
1013.73 1.54872e-08 1.00341 0.272513
1013.65 1.5429e-08 1.0034 0.269739
1013.56 1.55897e-08 1.00339 0.268986
1013.43 1.54149e-08 1.00336 0.257415
1013.35 1.53367e-08 1.00335 0.255347
1013.5 1.55021e-08 1.00338 0.260703
1013.4 1.53798e-08 1.00336 0.252833
1013.37 1.53464e-08 1.00336 0.252659
1013.38 1.53693e-08 1.00336 0.254112
1012.75 1.31007e-08 1.00323 0.2749
1013.74 1.54986e-08 1.00341 0.273814
1013.54 1.55512e-08 1.00339 0.265238
1013.57 1.56066e-08 1.00339 0.27092
1013.51 1.5512e-08 1.00339 0.264799
1013.35 1.53621e-08 1.00334 0.25694
1013.35 1.53255e-08 1.00335 0.253108
1013.33 1.53446e-08 1.00334 0.252089
1013.42 1.54002e-08 1.00337 0.253786
1013.36 1.53651e-08 1.00335 0.249583
1013.37 1.5376e-08 1.00336 0.250716
1013.75 1.55124e-08 1.00341 0.274531
1013.58 1.56264e-08 1.0034 0.271541
1013.46 1.54554e-08 1.00338 0.258838
1013.53 1.55352e-08 1.00339 0.268286
1013.48 1.54886e-08 1.00339 0.26105
1013.31 1.52174e-08 1.00334 0.25472
1013.35 1.54015e-08 1.00335 0.249529
1013.22 1.46981e-08 1.00333 0.248839
1013.39 1.53976e-08 1.00336 0.248713
1013.35 1.53451e-08 1.00335 0.247438
1013.76 1.55256e-08 1.00341 0.27507
1013.58 1.56319e-08 1.0034 0.273907
1013.58 1.56363e-08 1.0034 0.274051
1013.56 1.55808e-08 1.0034 0.272586
1013.58 1.56412e-08 1.0034 0.274191
1013.78 1.55861e-08 1.00342 0.27559
1013.78 1.55621e-08 1.00341 0.275439
1013.01 1.32319e-08 1.00299 0.275361
1013.77 1.55434e-08 1.00341 0.275258
1012.92 1.31865e-08 1.00298 0.275547
1000 0 1.00251 0.275788
1012.83 1.31193e-08 1.00298 0.275505
1000 0 1.00224 0.275935
1000 0 1.00197 0.276594
1012.85 1.32365e-08 1.00324 0.274881
1012.77 1.31928e-08 1.00323 0.27401
1000 0 1.00197 0.27652
1000 0 1.00197 0.276026
1012.55 1.30939e-08 1.00322 0.273113
1000 0 1.00197 0.275543
1013.41 1.53905e-08 1.00335 0.26295
1013.41 1.53981e-08 1.00335 0.266694
1013.35 1.53274e-08 1.00334 0.262669
1013.35 1.53404e-08 1.00334 0.265507
1013.41 1.53919e-08 1.00335 0.26812
1013.44 1.54419e-08 1.00336 0.270971
1013.41 1.53915e-08 1.00335 0.268258
1013.36 1.53505e-08 1.00334 0.266429
1013.35 1.5331e-08 1.00334 0.264768
1013.34 1.53502e-08 1.00334 0.264721
1013.34 1.53245e-08 1.00334 0.259159
1013.33 1.53084e-08 1.00334 0.260368
1013.36 1.53542e-08 1.00334 0.266638
1013.35 1.54156e-08 1.00334 0.265684
1013.34 1.53573e-08 1.00334 0.263236
1013.28 1.5033e-08 1.00334 0.264016
1013.33 1.5324e-08 1.00334 0.257711
1013.32 1.52402e-08 1.00334 0.259409
1013.42 1.53959e-08 1.00335 0.268008
1013.41 1.53979e-08 1.00335 0.266219
1013.35 1.5334e-08 1.00334 0.265237
1013.34 1.53169e-08 1.00334 0.262328
1013.62 1.54448e-08 1.0034 0.265716
1013.47 1.54706e-08 1.00337 0.256224
1013.38 1.53549e-08 1.00336 0.250872
1013.35 1.53187e-08 1.00335 0.258071
1013.33 1.52992e-08 1.00334 0.257088
1013.33 1.53085e-08 1.00334 0.253858
1013.36 1.53388e-08 1.00335 0.251156
1013.32 1.52725e-08 1.00334 0.251793
1013.52 1.55366e-08 1.00338 0.262539
1013.48 1.54832e-08 1.00338 0.262775
1013.74 1.5536e-08 1.00341 0.272084
1013.56 1.55884e-08 1.00339 0.26992
1013.36 1.53517e-08 1.00334 0.266328
1013.35 1.53226e-08 1.00334 0.263917
1013.34 1.53091e-08 1.00334 0.264718
1013.33 1.53115e-08 1.00334 0.259207
1013.5 1.55052e-08 1.00338 0.259658
1013.39 1.53649e-08 1.00336 0.250111
1013.36 1.53548e-08 1.00335 0.247046
1013.33 1.53148e-08 1.00334 0.255507
1013.32 1.52793e-08 1.00334 0.255695
1013.33 1.52794e-08 1.00335 0.250073
1013.32 1.52668e-08 1.00334 0.251178
1013.3 1.5187e-08 1.00334 0.250391
1013.45 1.54458e-08 1.00338 0.258332
1013.46 1.54554e-08 1.00338 0.258606
1013.51 1.55209e-08 1.00339 0.266753
1013.76 1.55576e-08 1.00341 0.27326
1013.56 1.56003e-08 1.00339 0.270444
1013.34 1.53858e-08 1.00334 0.265405
1013.34 1.53177e-08 1.00334 0.262917
1013.31 1.52241e-08 1.00334 0.256173
1013.29 1.51706e-08 1.00334 0.253357
1013.41 1.53989e-08 1.00337 0.253744
1013.31 1.5202e-08 1.00334 0.247084
1013.36 1.53681e-08 1.00336 0.245206
1013.32 1.52787e-08 1.00335 0.243936
1013.28 1.50417e-08 1.00334 0.249173
1013.78 1.55837e-08 1.00341 0.274155
1013.56 1.56101e-08 1.0034 0.270989
1013.52 1.55411e-08 1.00339 0.26898
1013.43 1.54281e-08 1.00337 0.254571
1013.49 1.54932e-08 1.00338 0.262273
1013.45 1.5425e-08 1.00337 0.25543
1012.72 1.30745e-08 1.00323 0.274965
1013.75 1.54986e-08 1.00341 0.274053
1013.35 1.53587e-08 1.00334 0.25688
1013.57 1.56054e-08 1.00339 0.271386
1013.54 1.55512e-08 1.00339 0.265729
1013.51 1.55116e-08 1.00338 0.264184
1013.35 1.53259e-08 1.00335 0.253128
1013.33 1.53412e-08 1.00334 0.252055
1013.41 1.53984e-08 1.00337 0.253983
1013.37 1.53755e-08 1.00336 0.250821
1013.36 1.5366e-08 1.00335 0.249928
1013.75 1.55122e-08 1.00341 0.274638
1013.58 1.56288e-08 1.0034 0.272226
1013.46 1.5456e-08 1.00338 0.25887
1013.53 1.55371e-08 1.00339 0.268367
1013.49 1.54961e-08 1.00338 0.260775
1013.31 1.52005e-08 1.00334 0.254694
1013.35 1.54051e-08 1.00335 0.24955
1013.23 1.46822e-08 1.00333 0.248781
1013.39 1.5399e-08 1.00336 0.248467
1013.35 1.53482e-08 1.00335 0.246923