# vtk DataFile Version 2.0
Wound Healing Simulation
ASCII
DATASET UNSTRUCTURED_GRID
POINTS 3012 float
69.9759 18.75 4
67.2507 60.3285 4
69.976 18.75 2
73.0099 25.446 4
71.1327 20.9142 4
68.6801 16.6661 4
67.8276 19.925 3.98735
67.2507 60.3286 2
71.1327 54.0858 4
68.6801 58.3339 4
65.6939 62.2254 4
65.314 59.0038 3.98841
74.6784 42.3946 4
73.7221 47.2057 4
69.9759 18.75 0
73.0099 25.446 2
68.6801 16.6661 2
71.1327 20.9142 2
67.8282 19.9265 2
74.6792 32.6053 4
73.7222 27.7943 4
72.1454 23.1494 4
70.6156 26.2225 3.98588
68.8878 21.9584 3.98696
67.2507 14.6715 4
66.6391 17.9696 3.98795
65.8029 21.0219 3.98193
67.2507 60.3285 0
71.1327 54.0858 2
68.6801 58.3339 2
65.694 62.2255 2
65.3146 59.0032 2
72.1454 51.8506 4
69.9759 56.25 4
68.8385 53.1129 3.98658
64.0165 64.0165 4
66.6127 57.1357 3.9881
63.8874 60.7687 3.98979
63.5052 57.7783 3.98368
60.3285 67.2507 4
74.6792 42.3947 2
73.7222 47.2057 2
74.9194 39.9526 4
74.2788 44.8158 4
72.169 42.0855 3.98417
73.0099 49.554 4
71.2507 46.5974 3.98569
73.0099 25.446 0
71.1327 20.9142 0
68.6801 16.6661 0
67.8276 19.925 0.0126506
74.6792 32.6053 2
73.7222 27.7943 2
67.2508 14.6715 2
72.1455 23.1494 2
70.6157 26.2232 2
66.6397 17.9704 2
68.8881 21.96 2
65.8031 21.0214 2
74.9197 35.0474 4
74.2794 30.1841 4
72.1857 32.9434 3.9848
71.2795 28.4323 3.98579
69.8174 24.0609 3.98647
68.3505 26.952 3.97771
66.7678 22.9319 3.98045
65.694 12.7746 4
65.3255 16.1004 3.98899
64.7195 19.1891 3.98327
63.8958 22.0293 3.97875
71.1327 54.0858 0
65.6939 62.2254 0
68.6801 58.3339 0
65.314 59.0038 0.011591
72.1455 51.8506 2
69.9759 56.25 2
68.8388 53.1112 2
64.0165 64.0165 2
66.6133 57.1346 2
63.8878 60.7684 2
63.5053 57.7791 2
62.2254 65.694 4
58.8948 65.4159 3.99265
69.7708 50.9879 3.98616
67.7859 55.1683 3.9875
66.6548 52.2109 3.98001
62.3374 62.4298 3.99125
64.6666 56.0369 3.9836
62.2064 59.4118 3.9842
61.8305 56.6912 3.98112
58.3339 68.6801 4
60.3285 67.2508 2
73.7221 47.2057 0
74.6784 42.3946 0
74.9197 39.9526 2
74.2794 44.8159 2
72.1689 42.0857 2
73.0099 49.554 2
71.2507 46.5972 2
75 37.5 4
72.4059 39.8022 3.98335
71.7837 44.3526 3.98515
69.8065 41.7897 3.97634
70.5768 48.8124 3.986
68.9161 46.0149 3.9775
74.6792 32.6053 0
73.7222 27.7943 0
67.2507 14.6715 0
72.1454 23.1494 0
70.6156 26.2225 0.0141216
68.8878 21.9584 0.0130409
66.6391 17.9696 0.0120522
65.8029 21.0219 0.0180699
74.9197 35.0474 2
74.2794 30.1841 2
72.1857 32.9433 2
71.2795 28.4326 2
65.694 12.7745 2
65.326 16.1005 2
69.8176 24.0622 2
68.3504 26.9521 2
64.7198 19.1882 2
66.7677 22.9316 2
63.8959 22.0286 2
72.4138 35.2242 3.98365
71.8051 30.6766 3.98562
69.8428 33.2687 3.977
68.9698 29.0386 3.97774
67.6157 24.9119 3.97891
66.1995 27.6339 3.97456
64.0165 10.9835 4
64.7642 23.8265 3.97714
63.8915 14.3241 3.99012
63.5181 17.4392 3.98463
62.9158 20.3116 3.97997
62.1035 22.9349 3.97701
60.6848 11.0954 3.99178
57.6132 11.4403 3.98684
72.1454 51.8506 0
69.9759 56.25 0
68.8385 53.1129 0.0134166
64.0165 64.0165 0
63.8874 60.7687 0.0102133
66.6127 57.1357 0.011903
63.5052 57.7783 0.0163224
62.2255 65.694 2
58.895 65.4159 2
69.771 50.9866 2
67.7865 55.1668 2
66.6547 52.2111 2
62.3377 62.4296 2
64.6668 56.0377 2
62.2064 59.4124 2
61.8307 56.6921 2
60.6696 63.9789 3.99201
57.0254 66.7366 3.99319
57.5588 63.6969 3.98738
67.5121 50.1774 3.97863
65.708 54.1768 3.98213
64.5453 51.3895 3.97631
60.7754 60.9448 3.9852
62.8291 55.0766 3.98116
60.664 58.17 3.9812
60.3372 55.7982 3.98002
56.25 69.9759 4
58.3339 68.6801 2
60.3285 67.2507 0
58.9218 9.65369 3.99239
62.2254 9.30607 4
73.0099 49.554 0
74.2788 44.8158 0
71.2507 46.5974 0.0143107
72.169 42.0855 0.0158312
74.9194 39.9526 0
75 37.5 2
72.4058 39.8024 2
71.7837 44.3527 2
69.8065 41.7897 2
70.5768 48.8118 2
68.916 46.0147 2
72.4892 37.5121 3.98328
70.0426 39.6575 3.97497
69.4337 43.9076 3.97728
67.6009 41.4986 3.97301
68.2701 48.1074 3.97794
66.7153 45.4416 3.97449
74.9197 35.0474 0
74.2794 30.1841 0
72.1857 32.9434 0.0152008
71.2795 28.4323 0.0142144
65.694 12.7746 0
65.3255 16.1004 0.0110141
69.8174 24.0609 0.013525
68.3505 26.952 0.0222909
66.7678 22.9319 0.0195538
64.7195 19.1891 0.0167346
63.8958 22.0293 0.0212529
72.4138 35.2241 2
71.8051 30.6766 2
69.8429 33.2689 2
68.9698 29.0388 2
64.0165 10.9835 2
63.8918 14.3242 2
63.5184 17.4383 2
67.6156 24.9119 2
66.1994 27.6338 2
62.9162 20.3107 2
64.7642 23.826 2
62.1038 22.9343 2
60.6851 11.0955 2
57.6133 11.4396 2
70.0596 35.3923 3.97562
69.4706 31.1498 3.97775
67.6597 33.5906 3.9737
66.7774 29.622 3.97457
65.5302 25.6976 3.97562
64.152 28.2533 3.97357
62.3427 12.6524 3.99104
62.8659 24.6318 3.97553
62.2023 15.7767 3.98508
61.8214 18.6738 3.98156
61.2285 21.3306 3.97782
60.4375 23.7172 3.97638
59.2475 12.7716 3.98539
55.8751 10.227 3.98829
56.4065 13.1029 3.98363
69.7708 50.9879 0.0138376
62.2254 65.694 0
58.8948 65.4159 0.00735201
67.7859 55.1683 0.0125028
66.6548 52.2109 0.0199931
62.3374 62.4298 0.00875458
62.2064 59.4118 0.0158034
64.6666 56.0369 0.016402
61.8305 56.6912 0.018882
60.6699 63.9789 2
57.0256 66.7367 2
57.5588 63.6976 2
67.512 50.1774 2
65.7081 54.1774 2
64.5453 51.39 2
60.7755 60.9457 2
62.8293 55.0776 2
60.664 58.1709 2
60.3374 55.7989 2
55.0708 67.9335 3.99347
59.2208 62.3722 3.98588
55.8052 64.9143 3.98889
56.3284 62.0979 3.98421
65.3384 49.411 3.9752
63.7151 53.2989 3.97894
62.4508 50.6584 3.97443
59.337 59.5671 3.98294
61.088 54.3202 3.98016
59.2961 57.0253 3.97911
59.2524 55.1965 3.98091
48.1033 68.5816 3.99025
50.9485 69.933 3.99388
54.0858 71.1327 4
56.25 69.976 2
58.3339 68.6801 0
57.0589 8.33358 3.99284
60.3285 7.74928 4
58.9221 9.65367 2
62.2255 9.30602 2
70.5768 48.8124 0.0139995
71.7837 44.3526 0.0148469
68.9161 46.0149 0.0225022
69.8065 41.7897 0.0236561
72.4059 39.8022 0.0166489
75 37.5 0
72.4892 37.5122 2
70.0426 39.6575 2
69.4337 43.9075 2
67.6009 41.4986 2
68.27 48.1072 2
66.7152 45.4417 2
70.1307 37.5218 3.9751
67.8364 39.5129 3.97169
67.2286 43.4714 3.97413
65.5603 41.212 3.97205
66.0747 47.4201 3.97492
64.6589 44.8518 3.97355
72.4138 35.2242 0.0163519
71.8051 30.6766 0.0143807
69.8428 33.2687 0.0229983
68.9698 29.0386 0.0222573
64.0165 10.9835 0
63.8915 14.3241 0.00988244
63.5181 17.4392 0.0153684
67.6157 24.9119 0.0210888
66.1995 27.6339 0.0254435
64.7642 23.8265 0.0228605
62.9158 20.3116 0.0200309
62.1035 22.9349 0.0229937
60.6848 11.0954 0.00822056
57.6132 11.4403 0.013165
70.0597 35.3925 2
69.4707 31.15 2
67.6598 33.5906 2
66.7775 29.6219 2
62.3429 12.6526 2
62.2024 15.7762 2
61.8217 18.6729 2
65.5301 25.6973 2
64.1521 28.2532 2
61.2289 21.3299 2
62.866 24.6313 2
60.4378 23.7167 2
59.2475 12.771 2
56.4065 13.102 2
55.8751 10.2262 2
67.8732 35.5478 3.97244
67.2706 31.6217 3.97463
65.703 33.9263 3.97244
64.6692 30.1899 3.97346
63.5451 26.4108 3.97412
62.2637 28.7742 3.97414
60.7772 14.2161 3.98497
61.0547 25.3306 3.97472
60.6179 17.1167 3.98292
60.2319 19.8034 3.97959
59.673 22.2457 3.97634
58.9906 24.3083 3.97697
54.0381 9.1306 3.98885
57.9121 14.3217 3.98331
54.7876 12.0021 3.98489
55.3141 14.6335 3.98228
67.5121 50.1774 0.021373
57.0254 66.7366 0.00680695
60.6696 63.9789 0.00798774
57.5588 63.6969 0.0126246
65.708 54.1768 0.0178659
64.5453 51.3895 0.0236856
60.7754 60.9448 0.014796
60.664 58.17 0.0188047
62.8291 55.0766 0.0188361
60.3372 55.7982 0.0199766
55.071 67.9336 2
59.2208 62.3731 2
55.8051 64.9149 2
56.3284 62.0986 2
65.3383 49.4114 2
63.7152 53.2998 2
62.4509 50.659 2
59.3371 59.5681 2
61.0883 54.3211 2
59.2962 57.026 2
59.2526 55.1972 2
53.0426 69.0013 3.99371
53.9674 66.0163 3.98951
57.883 60.8789 3.98354
54.6847 63.2142 3.98553
55.2134 60.6259 3.98258
63.202 48.666 3.97372
61.7525 52.5841 3.97736
60.2833 50.028 3.97339
58.0229 58.273 3.98062
59.3389 53.9602 3.97931
58.1348 55.8263 3.9771
50.1099 67.8596 3.99008
47.4639 66.586 3.98799
46.057 69.1612 3.99046
48.1033 68.5821 2
48.8026 70.7242 3.99404
50.9487 69.9331 2
51.8506 72.1454 4
54.0858 71.1327 2
56.25 69.9759 0
55.1031 7.13819 3.99304
58.3339 6.31992 4
57.0592 8.33347 2
60.3286 7.74926 2
58.9218 9.65369 0.00760998
62.2254 9.30607 0
68.2701 48.1074 0.0220583
69.4337 43.9076 0.0227158
66.7153 45.4416 0.0255057
67.6009 41.4986 0.0269897
70.0426 39.6575 0.0250326
72.4892 37.5121 0.0167218
70.1307 37.5218 2
67.8364 39.513 2
67.2286 43.4715 2
65.5603 41.2122 2
66.0747 47.4202 2
64.6589 44.8519 2
67.9329 37.5225 3.97181
65.79 39.3717 3.9707
65.1821 43.0283 3.97314
63.7607 40.9327 3.97182
63.9729 46.7208 3.97382
62.8149 44.2215 3.97402
70.0596 35.3923 0.0243801
69.4706 31.1498 0.0222474
67.6597 33.5906 0.0263017
66.7774 29.622 0.0254345
62.3427 12.6524 0.00895891
62.2023 15.7767 0.0149164
61.8214 18.6738 0.018437
65.5302 25.6976 0.0243775
64.152 28.2533 0.0264281
62.8659 24.6318 0.024475
61.2285 21.3306 0.0221829
60.4375 23.7172 0.0236161
59.2475 12.7716 0.0146099
56.4065 13.1029 0.016374
55.8751 10.227 0.0117114
67.8732 35.5478 2
67.2707 31.6216 2
65.7031 33.9262 2
64.6693 30.1897 2
60.7772 14.2155 2
60.618 17.1158 2
60.2324 19.8025 2
63.5452 26.4105 2
62.2638 28.7741 2
59.6736 22.245 2
61.0549 25.3302 2
58.991 24.3079 2
57.912 14.321 2
55.314 14.6326 2
54.038 9.12999 2
54.7876 12.0012 2
65.8798 35.6668 3.97131
65.1928 32.1521 3.9734
64.2902 34.249 3.97281
62.6024 30.6325 3.97301
61.6587 27.0676 3.97314
60.8575 29.1349 3.97484
59.3135 15.6585 3.98334
59.3411 25.7868 3.9771
59.1299 18.3424 3.98177
58.7503 20.8395 3.97755
58.297 23.0783 3.97504
57.9804 24.6522 3.97729
52.1126 8.14932 3.98917
53.0584 11.0087 3.98586
56.6787 15.7301 3.98248
53.8105 13.6684 3.98323
54.3782 15.9845 3.98204
55.0708 67.9335 0.00653297
65.3384 49.411 0.0248003
55.8052 64.9143 0.0111096
59.2208 62.3722 0.0141172
56.3284 62.0979 0.0157924
63.7151 53.2989 0.0210621
62.4508 50.6584 0.0255672
59.337 59.5671 0.0170616
59.2961 57.0253 0.0208896
61.088 54.3202 0.0198369
59.2524 55.1965 0.0190917
53.0429 69.0014 2
53.9673 66.0168 2
57.883 60.8797 2
54.6846 63.2149 2
55.2133 60.6268 2
63.2021 48.6663 2
61.7528 52.5849 2
60.2835 50.0286 2
58.0231 58.2739 2
59.3392 53.9609 2
58.1351 55.8269 2
52.0709 67.0027 3.98987
52.9538 64.2243 3.98667
56.6514 59.4995 3.9822
[...]
POINT_DATA 3012
SCALARS Jp_lamdaP float 4
LOOKUP_TABLE default
1 1 1 1
1 1 1 1
1 1 1 1
0.999991 1 1 0.999991
0.999999 1 1 0.999999
1 1 1 1
0.999897 1 1 0.999897
1 1 1 1
1 1 1 1
1 1 1 1
1 1 1 1
0.999971 1 1 0.999971
0.999978 1 1 0.999978
0.999993 1 1 0.999993
1 1 1 1
0.999993 1 1 0.999993
1 1 1 1
0.999999 1 1 0.999999
0.999898 1 1 0.999898
1 1 1 1
0.999988 1 1 0.999988
0.999996 1 1 0.999996
0.999822 1 1 0.999822
0.999876 1 1 0.999876
1 1 1 1
0.99992 1 1 0.99992
0.999705 1 1 0.999705
1 1 1 1
0.999999 1 1 0.999999
1 1 1 1
1 1 1 1
0.999975 1 1 0.999975
0.999997 1 1 0.999997
1 1 1 1
0.999919 1 1 0.999919
1 1 1 1
0.999959 1 1 0.999959
0.999984 1 1 0.999984
0.99975 1 1 0.99975
1 1 1 1
1 1 1 1
0.999996 1 1 0.999996
1 1 1 1
0.999988 1 1 0.999988
0.999819 1 1 0.999819
1 1 1 1
0.999879 1 1 0.999879
0.999994 1 1 0.999994
1 1 1 1
1 1 1 1
0.999899 1 1 0.999899
0.99999 1 1 0.99999
0.99999 1 1 0.99999
1 1 1 1
0.999997 1 1 0.999997
0.999823 1 1 0.999823
0.999921 1 1 0.999921
0.999877 1 1 0.999877
0.999698 1 1 0.999698
1 1 1 1
0.999985 1 1 0.999985
0.999843 1 1 0.999843
0.999806 1 1 0.999806
0.99985 1 1 0.99985
0.999525 1 1 0.999525
0.999631 1 1 0.999631
1 1 1 1
0.999948 1 1 0.999948
0.999758 1 1 0.999758
0.999465 1 1 0.999465
1 1 1 1
1 1 1 1
1 1 1 1
0.999978 1 1 0.999978
1 1 1 1
1 1 1 1
0.999924 1 1 0.999924
1 1 1 1
0.999962 1 1 0.999962
0.999989 1 1 0.999989
0.999749 1 1 0.999749
1 1 1 1
1 1 1 1
0.999899 1 1 0.999899
0.99994 1 1 0.99994
0.999599 1 1 0.999599
0.999996 1 1 0.999996
0.999726 1 1 0.999726
0.999775 1 1 0.999775
0.999577 1 1 0.999577
1 1 1 1
1 1 1 1
1 1 1 1
1 1 1 1
1 1 1 1
0.999992 1 1 0.999992
0.999832 1 1 0.999832
0.999997 1 1 0.999997
0.99988 1 1 0.99988
1 1 1 1
0.999794 1 1 0.999794
0.999861 1 1 0.999861
0.999378 1 1 0.999378
0.999891 1 1 0.999891
0.999447 1 1 0.999447
0.999981 1 1 0.999981
0.999991 1 1 0.999991
1 1 1 1
0.999998 1 1 0.999998
0.999825 1 1 0.999825
0.999879 1 1 0.999879
0.999922 1 1 0.999922
0.999691 1 1 0.999691
1 1 1 1
0.999987 1 1 0.999987
0.999803 1 1 0.999803
0.999807 1 1 0.999807
1 1 1 1
0.999964 1 1 0.999964
0.999852 1 1 0.999852
0.99951 1 1 0.99951
0.99975 1 1 0.99975
0.999641 1 1 0.999641
0.999466 1 1 0.999466
0.999805 1 1 0.999805
0.9998 1 1 0.9998
0.999421 1 1 0.999421
0.999469 1 1 0.999469
0.999563 1 1 0.999563
0.999288 1 1 0.999288
1 1 1 1
0.999423 1 1 0.999423
0.999995 1 1 0.999995
0.999771 1 1 0.999771
0.999507 1 1 0.999507
0.999368 1 1 0.999368
1 1 1 1
0.999855 1 1 0.999855
1 1 1 1
1 1 1 1
0.999929 1 1 0.999929
1 1 1 1
0.999993 1 1 0.999993
0.999966 1 1 0.999966
0.999748 1 1 0.999748
1 1 1 1
1 1 1 1
0.999905 1 1 0.999905
0.999946 1 1 0.999946
0.9996 1 1 0.9996
0.999998 1 1 0.999998
0.999727 1 1 0.999727
0.999774 1 1 0.999774
0.999571 1 1 0.999571
1 1 1 1
1 1 1 1
0.999872 1 1 0.999872
0.999532 1 1 0.999532
0.999674 1 1 0.999674
0.999397 1 1 0.999397
0.999809 1 1 0.999809
0.99955 1 1 0.99955
0.999591 1 1 0.999591
0.999502 1 1 0.999502
1 1 1 1
1 1 1 1
1 1 1 1
1 1 1 1
1 1 1 1
1 1 1 1
1 1 1 1
0.999879 1 1 0.999879
0.999829 1 1 0.999829
1 1 1 1
1 1 1 1
0.999795 1 1 0.999795
0.999862 1 1 0.999862
0.999378 1 1 0.999378
0.99989 1 1 0.99989
0.999447 1 1 0.999447
0.999785 1 1 0.999785
0.999335 1 1 0.999335
0.999417 1 1 0.999417
0.999179 1 1 0.999179
0.999482 1 1 0.999482
0.999255 1 1 0.999255
1 1 1 1
0.999989 1 1 0.999989
0.999763 1 1 0.999763
0.999808 1 1 0.999808
1 1 1 1
0.99998 1 1 0.99998
0.999854 1 1 0.999854
0.999495 1 1 0.999495
0.999651 1 1 0.999651
0.999742 1 1 0.999742
0.999467 1 1 0.999467
0.999802 1 1 0.999802
0.999801 1 1 0.999801
0.999391 1 1 0.999391
0.99948 1 1 0.99948
1 1 1 1
0.999992 1 1 0.999992
0.999784 1 1 0.999784
0.999564 1 1 0.999564
0.99927 1 1 0.99927
0.999504 1 1 0.999504
0.99943 1 1 0.99943
0.99937 1 1 0.99937
1 1 1 1
0.999856 1 1 0.999856
0.999344 1 1 0.999344
0.999453 1 1 0.999453
0.999211 1 1 0.999211
0.999216 1 1 0.999216
0.99937 1 1 0.99937
0.999201 1 1 0.999201
0.999999 1 1 0.999999
0.99933 1 1 0.99933
0.999793 1 1 0.999793
0.999561 1 1 0.999561
0.999408 1 1 0.999408
0.999339 1 1 0.999339
0.999821 1 1 0.999821
0.999902 1 1 0.999902
0.999637 1 1 0.999637
0.999907 1 1 0.999907
1 1 1 1
1 1 1 1
0.999952 1 1 0.999952
0.999602 1 1 0.999602
1 1 1 1
0.999774 1 1 0.999774
0.999727 1 1 0.999727
0.999566 1 1 0.999566
1 1 1 1
1 1 1 1
0.999872 1 1 0.999872
0.999533 1 1 0.999533
0.999676 1 1 0.999676
0.999397 1 1 0.999397
0.999809 1 1 0.999809
0.999556 1 1 0.999556
0.99959 1 1 0.99959
0.999494 1 1 0.999494
1 1 1 1
0.999839 1 1 0.999839
0.999909 1 1 0.999909
0.999668 1 1 0.999668
0.99933 1 1 0.99933
0.999489 1 1 0.999489
0.999296 1 1 0.999296
0.999623 1 1 0.999623
0.999476 1 1 0.999476
0.999477 1 1 0.999477
0.999438 1 1 0.999438
0.999978 1 1 0.999978
1 1 1 1
1 1 1 1
1 1 1 1
1 1 1 1
1 1 1 1
1 1 1 1
1 1 1 1
1 1 1 1
0.999892 1 1 0.999892
0.99986 1 1 0.99986
0.999447 1 1 0.999447
0.999378 1 1 0.999378
0.999797 1 1 0.999797
1 1 1 1
0.999784 1 1 0.999784
0.999335 1 1 0.999335
0.999417 1 1 0.999417
0.999179 1 1 0.999179
0.999483 1 1 0.999483
0.999255 1 1 0.999255
0.999323 1 1 0.999323
0.999135 1 1 0.999135
0.99922 1 1 0.99922
0.999121 1 1 0.999121
0.999289 1 1 0.999289
0.999189 1 1 0.999189
0.9998 1 1 0.9998
0.999801 1 1 0.999801
0.999361 1 1 0.999361
0.99949 1 1 0.99949
1 1 1 1
0.99999 1 1 0.99999
0.999798 1 1 0.999798
0.999566 1 1 0.999566
0.999252 1 1 0.999252
0.999438 1 1 0.999438
0.999501 1 1 0.999501
0.999371 1 1 0.999371
1 1 1 1
0.999856 1 1 0.999856
0.999333 1 1 0.999333
0.999453 1 1 0.999453
0.999203 1 1 0.999203
0.999235 1 1 0.999235
0.999999 1 1 0.999999
0.999793 1 1 0.999793
0.999574 1 1 0.999574
0.999369 1 1 0.999369
0.999196 1 1 0.999196
0.999394 1 1 0.999394
0.99933 1 1 0.99933
0.999338 1 1 0.999338
0.999822 1 1 0.999822
0.999633 1 1 0.999633
0.999901 1 1 0.999901
0.999174 1 1 0.999174
0.999223 1 1 0.999223
0.99911 1 1 0.99911
0.999147 1 1 0.999147
0.999274 1 1 0.999274
0.999203 1 1 0.999203
0.999805 1 1 0.999805
0.999311 1 1 0.999311
0.999624 1 1 0.999624
0.999446 1 1 0.999446
0.999324 1 1 0.999324
0.999366 1 1 0.999366
0.999942 1 1 0.999942
0.999636 1 1 0.999636
0.999646 1 1 0.999646
0.999553 1 1 0.999553
0.999533 1 1 0.999533
1 1 1 1
1 1 1 1
0.999872 1 1 0.999872
0.999677 1 1 0.999677
0.999397 1 1 0.999397
0.999809 1 1 0.999809
0.999589 1 1 0.999589
0.999563 1 1 0.999563
0.999487 1 1 0.999487
1 1 1 1
0.999839 1 1 0.999839
0.999911 1 1 0.999911
0.999667 1 1 0.999667
0.999329 1 1 0.999329
0.99949 1 1 0.99949
0.999296 1 1 0.999296
0.999623 1 1 0.999623
0.999484 1 1 0.999484
0.999474 1 1 0.999474
0.999458 1 1 0.999458
1 1 1 1
0.999938 1 1 0.999938
0.999649 1 1 0.999649
0.999698 1 1 0.999698
0.999551 1 1 0.999551
0.999241 1 1 0.999241
0.999396 1 1 0.999396
0.999259 1 1 0.999259
0.9995 1 1 0.9995
0.999428 1 1 0.999428
0.999356 1 1 0.999356
0.999969 1 1 0.999969
0.99982 1 1 0.99982
0.999985 1 1 0.999985
0.99998 1 1 0.99998
1 1 1 1
1 1 1 1
1 1 1 1
1 1 1 1
1 1 1 1
1 1 1 1
1 1 1 1
1 1 1 1
1 1 1 1
1 1 1 1
1 1 1 1
0.999483 1 1 0.999483
0.999417 1 1 0.999417
0.999255 1 1 0.999255
0.999179 1 1 0.999179
0.999335 1 1 0.999335
0.999784 1 1 0.999784
0.999323 1 1 0.999323
0.999135 1 1 0.999135
0.99922 1 1 0.99922
0.999117 1 1 0.999117
0.999288 1 1 0.999288
0.99919 1 1 0.99919
0.999121 1 1 0.999121
0.999106 1.00003 1 0.999078
0.999153 1 1 0.999153
0.999108 1 1 0.999108
0.999217 1 1 0.999217
0.999214 1 1 0.999214
0.999323 1 1 0.999323
0.999452 1 1 0.999452
0.999196 1 1 0.999196
0.999254 1 1 0.999254
0.999998 1 1 0.999998
0.999793 1 1 0.999793
0.999586 1 1 0.999586
0.999369 1 1 0.999369
0.999192 1 1 0.999192
0.99933 1 1 0.99933
0.999381 1 1 0.999381
0.999337 1 1 0.999337
0.999823 1 1 0.999823
0.99963 1 1 0.99963
0.9999 1 1 0.9999
0.999159 1 1 0.999159
0.999223 1 1 0.999223
0.999101 1 1 0.999101
0.999151 1 1 0.999151
0.999806 1 1 0.999806
0.999623 1 1 0.999623
0.99946 1 1 0.99946
0.99928 1 1 0.99928
0.999209 1 1 0.999209
0.999313 1 1 0.999313
0.999311 1 1 0.999311
0.999371 1 1 0.999371
0.999638 1 1 0.999638
0.999543 1 1 0.999543
0.999939 1 1 0.999939
0.999652 1 1 0.999652
0.999071 1 1 0.999071
0.999124 1 1 0.999124
0.999063 1 1 0.999063
0.999136 1 1 0.999136
0.999272 1 1 0.999272
0.999229 1 1 0.999229
0.999639 1 1 0.999639
0.999369 1 1 0.999369
0.99952 1 1 0.99952
0.999352 1 1 0.999352
0.999266 1 1 0.999266
0.999369 1 1 0.999369
0.999961 1 1 0.999961
0.999691 1 1 0.999691
0.999556 1 1 0.999556
0.99954 1 1 0.99954
0.99951 1 1 0.99951
1 1 1 1
0.999328 1 1 0.999328
0.999912 1 1 0.999912
0.999838 1 1 0.999838
0.999666 1 1 0.999666
0.999492 1 1 0.999492
0.999296 1 1 0.999296
0.999624 1 1 0.999624
0.999471 1 1 0.999471
0.999491 1 1 0.999491
0.999477 1 1 0.999477
1 1 1 1
0.999941 1 1 0.999941
0.999648 1 1 0.999648
0.999698 1 1 0.999698
0.999546 1 1 0.999546
0.999239 1 1 0.999239
0.999396 1 1 0.999396
0.999256 1 1 0.999256
0.999501 1 1 0.999501
0.999433 1 1 0.999433
0.999366 1 1 0.999366
0.999956 1 1 0.999956
0.999734 1 1 0.999734
0.999529 1 1 0.999529
0.99957 1 1 0.99957
0.999491 1 1 0.999491
0.999219 1 1 0.999219
0.999351 1 1 0.999351
0.999307 1 1 0.999307
0.999393 1 1.00001 0.999388
0.999298 1 1 0.999298
0.999971 1 1 0.999971
0.999774 1 1 0.999774
0.999808 1 1 0.999808
0.999699 1 1 0.999699
0.999831 1 1 0.999831
0.99999 1 1 0.99999
0.999987 1 1 0.999987
1 1 1 1
0.999983 1 1 0.999983
1 1 1 1
1 1 1 1
1 1 1 1
1 1 1 1
1 1 1 1
1 1 1 1
1 1 1 1
1 1 1 1
1 1 1 1
1 1 1 1
1 1 1 1
0.999288 1 1 0.999288
0.999221 1 1 0.999221
0.99919 1 1 0.99919
0.999113 1 1 0.999113
0.999135 1 1 0.999135
0.999323 1 1 0.999323
0.999121 1 1 0.999121
0.999098 1.00003 1 0.999072
0.999153 1 1 0.999153
0.999106 1 1 0.999106
0.999216 1 1 0.999216
0.999213 1 1 0.999213
0.999079 1.00003 1 0.999051
0.999549 1.00049 1 0.999061
0.999149 1 1 0.999149
0.999139 1.00004 1 0.999098
0.999222 1 1 0.999222
0.999234 1 1 0.999234
0.999143 1 1 0.999143
0.999223 1 1 0.999223
0.999093 1 1 0.999093
0.999155 1 1 0.999155
0.999807 1 1 0.999807
0.999622 1 1 0.999622
0.999474 1 1 0.999474
0.999286 1 1 0.999286
0.999215 1 1 0.999215
0.999312 1 1 0.999312
0.999302 1 1 0.999302
0.999376 1 1 0.999376
0.999639 1 1 0.999639
0.999533 1 1 0.999533
0.999937 1 1 0.999937
0.999658 1 1 0.999658
0.999079 1.00001 1 0.999071
0.999126 1 1 0.999126
0.999063 1 1 0.999063
0.999137 1 1 0.999137
0.99964 1 1 0.99964
0.999532 1 1 0.999532
0.99935 1 1 0.99935
0.999267 1 1 0.999267
0.999256 1 1 0.999256
0.99926 1 1 0.99926
0.99937 1 1 0.99937
0.999386 1 1 0.999386
0.999557 1 1 0.999557
0.999507 1 1 0.999507
0.999538 1 1 0.999538
0.999944 1 1 0.999944
0.999697 1 1 0.999697
0.999158 1.00012 1 0.999035
0.999056 1 1 0.999056
0.999172 1.00002 1 0.999153
0.99931 1 1 0.99931
0.999565 1 1 0.999565
0.999421 1 1 0.999421
0.999449 1 1 0.999449
0.999227 1 1 0.999227
0.999215 1 1 0.999215
0.999944 1 1 0.999944
0.999762 1 1 0.999762
0.999579 1 1 0.999579
0.999528 1 1 0.999528
0.999459 1 1 0.999459
0.999477 1 1 0.999477
1 1 1 1
0.999943 1 1 0.999943
0.999238 1 1 0.999238
0.999697 1 1 0.999697
0.999648 1 1 0.999648
0.999542 1 1 0.999542
0.999397 1 1 0.999397
0.999252 1 1 0.999252
0.999503 1 1 0.999503
0.999376 1 1 0.999376
0.999438 1 1 0.999438
0.999959 1 1 0.999959
0.999734 1 1 0.999734
0.999536 1 1 0.999536
0.999569 1 1 0.999569
0.999483 1 1 0.999483
0.999217 1 1 0.999217
0.999348 1 1 0.999348
0.999313 1 1 0.999313
0.999385 1 1 0.999381
0.999282 1 1 0.999282
0.999766 1 1 0.999766
0.999579 1 1 0.999579
0.999454 1 1.00001 0.999448
0.999473 1 1 0.999473
0.999433 1 1 0.999433
0.999338 1 1 0.999338
0.999268 1 1 0.999268
0.999297 1 1 0.999297
0.999516 1 1.00021 0.999306
0.99915 1 1 0.99915
0.999974 1 1 0.999974
0.999783 1 1 0.999783
0.999638 1 1 0.999638
0.999797 1 1 0.999797
0.999831 1 1 0.999831
0.999682 1 1 0.999682
0.999592 1 1 0.999592
0.999678 1 1 0.999678
0.999841 1 1 0.999841
0.999992 1 1 0.999992
0.999991 1 1 0.999991
1 1 1 1
0.999988 1 1 0.999988
1 1 1 1
1 1 1 1
1 1 1 1
1 1 1 1
1 1 1 1
1 1 1 1
1 1 1 1
1 1 1 1
1 1 1 1
1 1 1 1
1 1 1 1
0.999214 1 1 0.999214
0.999154 1 1 0.999154
0.999212 1 1 0.999212
0.999105 1 1 0.999105
0.99909 1.00002 1 0.999066
0.999122 1 1 0.999122
0.999085 1.00004 1 0.999049
0.999429 1.00037 1 0.999063
0.999143 1 1 0.999143
0.999118 1.00003 1 0.999093
0.999222 1 1 0.999222
0.999249 1 1 0.999249
0.999916 1.00088 1 0.999036
0.99983 1.00076 1 0.999074
0.99926 1.00011 1 0.999146
0.999299 1 1 0.999299
0.999088 1.00002 1 0.999072
0.999129 1 1 0.999129
0.999064 1 1 0.999064
0.999139 1 1 0.999139
0.99964 1 1 0.99964
0.999543 1 1 0.999543
0.999349 1 1 0.999349
0.999263 1 1 0.999263
0.999283 1 1 0.999283
0.999372 1 1 0.999372
0.999254 1 1 0.999254
0.999403 1 1 0.999403
0.999557 1 1 0.999557
0.999504 1 1 0.999504
0.999536 1 1 0.999536
0.999926 1 1 0.999926
0.999704 1 1 0.999704
0.999144 1.00011 1 0.999037
0.99908 1.00002 1 0.999061
0.999204 1.00004 1 0.999164
0.999563 1 1 0.999563
0.999463 1 1 0.999463
0.999224 1 1 0.999224
0.9993 1 1 0.9993
0.999241 1 1 0.999241
0.999419 1 1 0.999419
0.999944 1 1 0.999944
0.999527 1 1 0.999527
0.999485 1 1 0.999485
0.999458 1 1 0.999458
0.999585 1 1 0.999585
0.999749 1 1 0.999749
0.999353 1.00032 1 0.999033
0.999149 1.0001 1 0.999046
0.999334 1.00013 1 0.999202
0.999503 1.00013 1 0.999373
0.999519 1 1 0.999519
0.999283 1 1 0.999283
0.999314 1 1 0.999314
0.999225 1 1.00009 0.99913
0.999958 1 1 0.999958
0.999798 1 1 0.999798
0.999627 1 1 0.999627
0.999454 1 1 0.999454
0.999487 1 1 0.999487
0.999426 1 1 0.999426
0.999962 1 1 0.999962
0.999734 1 1 0.999734
0.999216 1 1 0.999216
0.999568 1 1 0.999568
0.999542 1 1 0.999542
0.999475 1 1 0.999475
0.999345 1 1 0.999345
0.999318 1 1 0.999318
0.999375 1 1 0.999375
0.999265 1 1 0.999265
0.999766 1 1 0.999766
0.999584 1 1 0.999584
0.999461 1 1 0.999459
0.999479 1 1 0.999479
0.999437 1 1 0.999437
0.999337 1 1 0.999337
0.999273 1 1 0.999273
0.999342 1 1 0.999342
0.999504 1 1.00021 0.999297
0.999142 1 1.00001 0.999129
0.999613 1 1 0.999613
0.999468 1 1 0.999468
0.999553 1 1.00018 0.999371
0.99939 1 1 0.99939
0.999741 1.00043 1 0.999309
1.00018 1.00093 0.999872 0.999373
0.999132 1 1 0.999132
1.00088 1 1.00176 0.999119
0.999791 1 1 0.999791
0.999646 1 1 0.999646
0.999555 1 1 0.999555
0.999831 1 1 0.999831
0.999665 1 1 0.999665
0.999841 1 1 0.999841
0.999579 1 1 0.999579
0.999685 1 1 0.999685
0.999507 1 1 0.999507
0.999578 1 1 0.999578
0.999688 1 1 0.999688
0.999845 1 1 0.999845
0.999992 1 1 0.999992
0.999992 1 1 0.999992
1 1 1 1
0.999991 1 1 0.999991
1 1 1 1
1 1 1 1
1 1 1 1
1 1 1 1
1 1 1 1
1 1 1 1
1 1 1 1
1 1 1 1
1 1 1 1
1 1 1 1
1 1 1 1
0.999222 1 1 0.999222
0.999137 1 1 0.999137
0.999264 1 1 0.999264
0.999088 1 1 0.999088
0.999295 1.00023 1 0.999065
0.999089 1.00004 1 0.999046
0.999774 1.00074 1 0.99904
0.999789 1.00072 1 0.999074
0.999316 1.00016 1 0.999153
0.999294 1 1 0.999294
1.00037 1.00131 1 0.999053
1.00034 1.00122 1 0.999116
0.999571 1.00036 1 0.999217
0.999128 1.00009 1 0.99904
0.999092 1.00003 1 0.999066
0.999236 1.00006 1 0.999174
0.999562 1 1 0.999562
0.999477 1 1 0.999477
0.999225 1 1 0.999221
0.99929 1 1 0.99929
0.999417 1 1 0.999417
0.999267 1 1 0.999267
0.999526 1 1 0.999526
0.999493 1 1 0.999493
0.999457 1 1 0.999457
0.999945 1 1 0.999945
0.99959 1 1 0.99959
0.999736 1 1 0.999736
0.999467 1.00043 1 0.999035
0.999114 1.00007 1 0.999043
0.999276 1.00009 1 0.999189
0.999517 1 1 0.999517
0.999336 1 1 0.999336
0.99924 1 1.0001 0.999135
0.999946 1.00056 1 0.999384
0.999281 1 1 0.999281
0.999971 1 1 0.999971
0.999798 1 1 0.999798
0.999487 1 1 0.999487
0.999432 1 1 0.999432
0.999459 1 1 0.999459
0.999617 1 1 0.999617
0.999806 1.00075 1 0.999059
0.999743 1.00068 1 0.999062
1.00075 1.00153 0.999905 0.999321
1.00081 1.00142 1 0.999396
0.999449 1 1 0.999449
1.00034 1 1.00127 0.999075
0.999414 1 1.0002 0.999216
0.999994 1 1 0.999994
0.999869 1 1 0.999869
0.999801 1 1 0.999801
0.99964 1 1 0.99964
0.999498 1 1 0.999498
0.999371 1 1 0.999371
0.999471 1 1 0.999471
0.999409 1 1 0.999409
0.999766 1 1 0.999766
0.999589 1 1 0.999589
0.999336 1 1 0.999336
0.999484 1 1 0.999484
0.99947 1 1 0.99947
0.999441 1 1 0.999441
0.999277 1 1 0.999277
0.999387 1 1 0.999387
0.999518 1 1.00023 0.999288
0.999107 1 1 0.999107
0.999608 1 1 0.999608
0.999476 1 1 0.999476
0.999601 1 1.00022 0.99938
0.999397 1 1 0.999397
0.999756 1.00046 1 0.9993
0.99991 1.00059 0.999949 0.999371
0.999165 1.00001 1 0.999153
1.00046 1 1.00135 0.999109
0.999523 1 1 0.999523
0.99974 1.00052 1 0.999224
0.999397 1 1 0.999397
0.999663 1 1.00038 0.999283
1.00221 1.00313 0.999722 0.999353
0.999944 1.00083 1 0.999117
1.00151 1 1.00249 0.999031
0.999654 1 1 0.999654
0.999555 1 1 0.999555
0.999477 1 1 0.999477
0.999841 1 1 0.999841
0.999691 1 1 0.999691
0.999566 1 1 0.999566
0.999845 1 1 0.999845
0.999687 1 1 0.999687
0.999496 1 1 0.999496
0.999591 1 1 0.999591
0.999444 1 1 0.999444
0.999494 1 1 0.999494
0.999603 1 1 0.999603
0.999706 1 1 0.999706
0.999844 1 1 0.999844
0.999991 1 1 0.999991
0.999992 1 1 0.999992
1 1 1 1
0.999992 1 1 0.999992
1 1 1 1
1 1 1 1
1 1 1 1
1 1 1 1
1 1 1 1
0.999999 1 1 0.999999
1 1 1 1
1 1 1 1
1 1 1 1
1 1 1 1
1 1 1 1
1 1 1 1
0.999288 1 1 0.999288
0.999381 1.00022 1 0.999159
0.999768 1.0007 1 0.999073
0.999647 1.0006 1 0.999045
1.00045 1.00139 1 0.999058
1.00047 1.00136 1 0.999108
0.99963 1.0004 1 0.999231
1.00054 1.00144 1 0.999099
1.00055 1.0014 1 0.999149
0.999775 1.00053 1 0.999248
0.999603 1.00057 1 0.999037
0.999094 1.00005 1 0.999041
0.999237 1.00006 1 0.999176
0.999514 1 1 0.999514
0.999359 1 1 0.999359
0.999159 1 1.00002 0.999141
1.00037 1.00097 1 0.999396
0.999278 1 1 0.999278
0.999486 1 1 0.999486
0.999439 1 1 0.999439
0.999464 1 1 0.999464
0.999983 1 1 0.999983
0.999799 1 1 0.999799
0.999607 1 1 0.999607
0.999718 1.00066 1 0.999063
0.999992 1 1 0.999992
0.99986 1 1 0.99986
0.999803 1.00074 1 0.999062
1.00111 1.00182 1 0.999298
0.999461 1 1 0.999461
0.999847 1 1.00065 0.999194
0.99969 1 1.00061 0.999082
1.00037 1.00098 1 0.999395
0.999826 1 1 0.999826
0.99964 1 1 0.99964
0.999465 1 1 0.999465
0.999453 1 1.00001 0.999438
0.999356 1 1 0.999356
0.9995 1 1 0.9995
1.00049 1.00139 1 0.999102
1.00164 1.0025 1 0.999144
1.00263 1.00357 0.999601 0.999462
0.999201 1 1 0.999201
0.999868 1 1.00046 0.999408
1.00222 1 1.00317 0.999055
0.999869 1 1 0.999869
0.999847 1 1 0.999847
0.999747 1 1 0.999747
0.999646 1 1 0.999646
0.999537 1 1 0.999537
0.999394 1 1 0.999394
0.999315 1 1.00002 0.999293
0.999443 1 1 0.999443
0.999603 1 1 0.999603
0.999484 1 1 0.999484
0.999824 1.00053 1 0.999292
0.999639 1.00027 1 0.999369
0.999405 1 1 0.999405
0.999622 1 1.00023 0.99939
0.999215 1.00002 1.00002 0.999174
1.00011 1 1.00101 0.999099
0.999522 1 1 0.999522
0.999749 1.00051 1 0.99924
0.999398 1 1 0.999398
0.999863 1 1.00059 0.999269
1.00145 1.00237 0.99974 0.999344
1.0003 1.00117 1 0.999123
1.0015 1 1.00247 0.999032
0.99943 1 1 0.99943
1.00933 1.01069 0.999356 0.999295
0.999333 1 1 0.999333
1.00128 1 1.00213 0.999148
0.999499 1.00313 0.997225 0.999151
1.00108 1 1.00209 0.998987
1.0067 1.00947 0.998044 0.999212
0.999555 1 1 0.999555
0.999477 1 1 0.999477
0.999422 1 1 0.999422
0.999846 1 1 0.999846
0.999686 1 1 0.999686
0.999605 1 1 0.999605
0.999486 1 1 0.999486
0.999844 1 1 0.999844
0.999698 1 1 0.999698
0.999441 1 1 0.999441
0.999603 1 1 0.999603
0.999505 1 1 0.999505
0.999424 1 1 0.999424
0.999533 1 1 0.999533
0.999612 1 1 0.999612
0.999686 1 1 0.999686
0.99982 1 1 0.99982
0.999724 1 1 0.999724
0.99982 1 1 0.99982
0.99999 1 1 0.99999
0.999991 1 1 0.999991
1 1 1 1
0.999991 1 1 0.999991
1 1 1 1
1 1 1 1
1 1 1 1
1 1 1 1
1 1 1 1
1 1 1 1
0.999998 1 1 0.999998
1 1 1 1
1 1 1 1
1 1 1 1
1 1 1 1
1 1 1 1
1 1 1 1
0.999672 1.00043 1 0.999244
1.00061 1.00152 1 0.9991
1.00052 1.00146 1 0.999063
1.00063 1.00154 1 0.999098
1.00053 1.00137 1 0.999155
0.999593 1.00034 1 0.999257
1.00111 1.00193 1 0.999178
1.0064 1.01177 0.99532 0.999362
1.00885 1.00989 0.999609 0.999362
0.999901 1 1 0.999901
0.999632 1.00057 1 0.999067
0.999835 1.00077 1 0.999063
1.00138 1.0021 1 0.999275
0.999473 1 1 0.999473
1.00049 1 1.00132 0.999172
0.999214 1 1.00013 0.999089
0.999946 1.00055 1 0.999394
0.999459 1 1 0.999459
0.999467 1 1 0.999467
0.999341 1 1 0.999341
0.99999 1 1 0.99999
0.999502 1 1 0.999502
0.99985 1 1 0.99985
0.999639 1 1 0.999639
0.999851 1 1 0.999851
1.00035 1.00125 1 0.999098