# vtk DataFile Version 2.0
Wound Healing Simulation
ASCII
DATASET UNSTRUCTURED_GRID
POINTS 3012 float
69.9759 18.75 4
67.2507 60.3285 4
69.976 18.75 2
73.0099 25.446 4
71.1327 20.9142 4
68.6801 16.6661 4
67.8276 19.9219 3.98912
67.2507 60.3286 2
71.1327 54.0858 4
68.6801 58.3339 4
65.6939 62.2254 4
65.3139 59.0061 3.99065
74.6784 42.3946 4
73.7221 47.2057 4
69.9759 18.75 0
73.0099 25.446 2
68.6801 16.6661 2
71.1327 20.9142 2
67.8278 19.9222 2
74.6792 32.6053 4
73.7222 27.7943 4
72.1454 23.1494 4
70.6166 26.2214 3.98803
68.8881 21.9555 3.9887
67.2507 14.6715 4
66.6388 17.9667 3.98988
65.8044 21.0175 3.98505
67.2507 60.3285 0
71.1327 54.0858 2
68.6801 58.3339 2
65.694 62.2255 2
65.314 59.0062 2
72.1454 51.8506 4
69.9759 56.25 4
68.8391 53.1152 3.98875
64.0165 64.0165 4
66.6126 57.1383 3.9901
63.8872 60.7703 3.9915
63.5059 57.7822 3.98609
60.3285 67.2507 4
74.6792 42.3947 2
73.7222 47.2057 2
74.9194 39.9526 4
74.2788 44.8158 4
72.17 42.0852 3.98721
73.0099 49.554 4
71.2517 46.5972 3.9881
73.0099 25.446 0
71.1327 20.9142 0
68.6801 16.6661 0
67.8276 19.9219 0.0108834
74.6792 32.6053 2
73.7222 27.7943 2
67.2508 14.6715 2
72.1455 23.1494 2
70.6167 26.2224 2
66.639 17.9667 2
68.8883 21.9562 2
65.8045 21.0173 2
74.9197 35.0474 4
74.2794 30.1841 4
72.1866 32.9435 3.98762
71.2805 28.4321 3.98797
69.8181 24.0588 3.98837
68.354 26.9492 3.9825
66.7702 22.9276 3.98447
65.694 12.7746 4
65.3252 16.0981 3.99084
64.7203 19.1848 3.98574
63.8993 22.0229 3.98285
71.1327 54.0858 0
65.6939 62.2254 0
68.6801 58.3339 0
65.3139 59.0061 0.00935391
72.1455 51.8506 2
69.9759 56.25 2
68.8394 53.1146 2
64.0165 64.0165 2
66.6128 57.1383 2
63.8873 60.7704 2
63.506 57.7825 2
62.2254 65.694 4
58.8941 65.417 3.99253
69.7718 50.9894 3.98834
67.7861 55.171 3.98948
66.6579 52.2144 3.98458
62.3372 62.4311 3.9921
64.6678 56.0408 3.98623
62.2067 59.4154 3.98633
61.8325 56.6964 3.98421
58.3339 68.6801 4
60.3285 67.2508 2
73.7221 47.2057 0
74.6784 42.3946 0
74.9197 39.9526 2
74.2794 44.8159 2
72.1699 42.0849 2
73.0099 49.554 2
71.2518 46.5964 2
75 37.5 4
72.4069 39.8021 3.98662
71.7847 44.3522 3.9878
69.8099 41.7896 3.98113
70.5779 48.8129 3.9882
68.9195 46.0157 3.98194
74.6792 32.6053 0
73.7222 27.7943 0
67.2507 14.6715 0
72.1454 23.1494 0
70.6166 26.2214 0.0119657
68.8881 21.9555 0.011303
66.6388 17.9667 0.0101205
65.8044 21.0175 0.0149546
74.9197 35.0474 2
74.2794 30.1841 2
72.1866 32.9439 2
71.2805 28.433 2
65.694 12.7745 2
65.3253 16.098 2
69.8183 24.0598 2
68.3539 26.9493 2
64.7204 19.1845 2
66.7703 22.9274 2
63.8994 22.0228 2
72.4149 35.2242 3.98684
71.806 30.6768 3.98804
69.8461 33.2682 3.98156
68.973 29.037 3.98185
67.6189 24.9082 3.9836
66.2064 27.6293 3.9803
64.0165 10.9835 4
64.7694 23.82 3.98236
63.8913 14.3226 3.99157
63.5183 17.4353 3.98643
62.918 20.3056 3.98337
62.1096 22.9267 3.9818
60.6845 11.0943 3.99222
57.6129 11.4386 3.98737
72.1454 51.8506 0
69.9759 56.25 0
68.8391 53.1152 0.0112545
64.0165 64.0165 0
63.8872 60.7703 0.0084981
66.6126 57.1383 0.00989891
63.5059 57.7822 0.0139136
62.2255 65.694 2
58.8942 65.4171 2
69.772 50.9885 2
67.7863 55.1708 2
66.6581 52.2146 2
62.3373 62.4311 2
64.6679 56.0411 2
62.2068 59.4156 2
61.8327 56.6966 2
60.6691 63.9802 3.99232
57.0245 66.7374 3.99282
57.558 63.6984 3.9875
67.5158 50.1801 3.98358
65.7101 54.1806 3.98565
64.5518 51.395 3.98207
60.7754 60.9479 3.98691
62.8319 55.082 3.98452
60.6653 58.1746 3.98417
60.3405 55.8046 3.98343
56.25 69.9759 4
58.3339 68.6801 2
60.3285 67.2507 0
58.9214 9.65277 3.99255
62.2254 9.30607 4
73.0099 49.554 0
74.2788 44.8158 0
71.2517 46.5972 0.0119012
72.17 42.0852 0.0127904
74.9194 39.9526 0
75 37.5 2
72.4068 39.802 2
71.7846 44.3516 2
69.8098 41.7894 2
70.578 48.812 2
68.9194 46.0155 2
72.4902 37.512 3.98641
70.0462 39.6572 3.98032
69.437 43.9078 3.98161
67.6074 41.4991 3.9786
68.2738 48.1091 3.98265
66.7218 45.4435 3.97978
74.9197 35.0474 0
74.2794 30.1841 0
72.1866 32.9435 0.0123792
71.2805 28.4321 0.0120254
65.694 12.7746 0
65.3252 16.0981 0.00916225
69.8181 24.0588 0.0116295
68.354 26.9492 0.0174971
66.7702 22.9276 0.0155334
64.7203 19.1848 0.0142556
63.8993 22.0229 0.0171508
72.4148 35.2244 2
71.806 30.6774 2
69.8459 33.2684 2
68.9728 29.0372 2
64.0165 10.9835 2
63.8914 14.3226 2
63.5184 17.4351 2
67.6189 24.9081 2
66.2063 27.6291 2
62.9182 20.3055 2
64.7694 23.8198 2
62.1096 22.9267 2
60.6846 11.0943 2
57.6128 11.4383 2
70.0633 35.392 3.98097
69.4737 31.149 3.9818
67.6659 33.5891 3.979
66.7836 29.6189 3.97954
65.5367 25.6917 3.9814
64.1626 28.2468 3.97958
62.3425 12.6512 3.99197
62.8745 24.6231 3.98153
62.2022 15.7734 3.9867
61.8224 18.6688 3.98425
61.2325 21.3231 3.98184
60.4464 23.7078 3.98162
59.2474 12.7693 3.9869
55.8744 10.2256 3.98834
56.4067 13.101 3.98452
69.7718 50.9894 0.0116643
62.2254 65.694 0
58.8941 65.417 0.00746572
67.7861 55.171 0.0105204
66.6579 52.2144 0.0154164
62.3372 62.4311 0.00789815
62.2067 59.4154 0.0136655
64.6678 56.0408 0.0137738
61.8325 56.6964 0.0157867
60.6692 63.9803 2
57.0247 66.7375 2
57.558 63.6988 2
67.5159 50.1802 2
65.7103 54.1809 2
64.5519 51.3953 2
60.7755 60.9484 2
62.8321 55.0823 2
60.6655 58.175 2
60.3407 55.8047 2
55.0699 67.9341 3.99314
59.2205 62.3747 3.98711
55.8038 64.9151 3.98815
56.3283 62.0991 3.98477
65.3456 49.4156 3.9811
63.7196 53.3046 3.9835
62.4611 50.6657 3.98077
59.3378 59.5706 3.98482
61.0925 54.327 3.98376
59.2986 57.0311 3.98273
59.2567 55.2039 3.98361
48.1021 68.5818 3.98997
50.9479 69.9333 3.99368
54.0858 71.1327 4
56.25 69.976 2
58.3339 68.6801 0
57.0584 8.3328 3.99298
60.3285 7.74928 4
58.9215 9.65271 2
62.2255 9.30602 2
70.5779 48.8129 0.0117979
71.7847 44.3522 0.0122005
68.9195 46.0157 0.018064
69.8099 41.7896 0.0188712
72.4069 39.8021 0.0133771
75 37.5 0
72.4901 37.5121 2
70.0461 39.657 2
69.4369 43.9075 2
67.6073 41.4991 2
68.2738 48.109 2
66.7217 45.4436 2
70.1342 37.5215 3.9802
67.8434 39.513 3.97781
67.2347 43.4724 3.97923
65.5701 41.213 3.97786
66.0817 47.4232 3.9804
64.6687 44.8547 3.97902
72.4149 35.2242 0.0131569
71.806 30.6768 0.0119649
69.8461 33.2682 0.0184439
68.973 29.037 0.0181462
64.0165 10.9835 0
63.8913 14.3226 0.00843356
63.5183 17.4353 0.0135684
67.6189 24.9082 0.0164036
66.2064 27.6293 0.0197022
64.7694 23.82 0.0176361
62.918 20.3056 0.0166296
62.1096 22.9267 0.0182033
60.6845 11.0943 0.00778358
57.6129 11.4386 0.0126291
70.0631 35.392 2
69.4735 31.1492 2
67.6657 33.5889 2
66.7833 29.6188 2
62.3426 12.6512 2
62.2022 15.7731 2
61.8226 18.6686 2
65.5366 25.6915 2
64.1623 28.2466 2
61.2326 21.3232 2
62.8744 24.6231 2
60.4463 23.7079 2
59.2474 12.769 2
56.4067 13.1007 2
55.8744 10.2252 2
67.8801 35.5467 3.97855
67.2765 31.6195 3.97946
65.7123 33.9241 3.97805
64.6786 30.1854 3.97846
63.5554 26.4028 3.98056
62.2778 28.7659 3.97998
60.7772 14.2131 3.98675
61.0669 25.3203 3.98143
60.6183 17.1126 3.98484
60.2342 19.7971 3.98286
59.6794 22.2371 3.9808
59.0021 24.2983 3.98202
54.0374 9.12921 3.98913
57.9126 14.3189 3.98472
54.7875 12.0008 3.985
55.3149 14.6318 3.9834
67.5158 50.1801 0.0164241
57.0245 66.7374 0.00718
60.6691 63.9802 0.00768271
57.558 63.6984 0.0124997
65.7101 54.1806 0.0143507
64.5518 51.395 0.0179308
60.7754 60.9479 0.0130903
60.6653 58.1746 0.0158292
62.8319 55.082 0.0154751
60.3405 55.8046 0.0165721
55.0701 67.9342 2
59.2205 62.3752 2
55.8039 64.9155 2
56.3283 62.0995 2
65.3457 49.4159 2
63.7198 53.3049 2
62.4612 50.6659 2
59.3379 59.5711 2
61.0928 54.3272 2
59.2988 57.0313 2
59.2569 55.204 2
53.0419 69.0017 3.99345
53.9658 66.0169 3.98879
57.8835 60.8815 3.98486
54.6839 63.2141 3.98518
55.214 60.6267 3.98354
63.2133 48.6721 3.98
61.7599 52.5913 3.98242
60.298 50.0363 3.98011
58.0245 58.2772 3.98349
59.345 53.9679 3.98296
58.1387 55.8339 3.98135
50.1084 67.8599 3.98969
47.4622 66.5859 3.98748
46.056 69.1612 3.9902
48.1022 68.5822 2
48.8022 70.7244 3.99388
50.9481 69.9335 2
51.8506 72.1454 4
54.0858 71.1327 2
56.25 69.9759 0
55.1027 7.13748 3.99333
58.3339 6.31992 4
57.0586 8.33271 2
60.3286 7.74926 2
58.9214 9.65277 0.00745284
62.2254 9.30607 0
68.2738 48.1091 0.017345
69.437 43.9078 0.01839
66.7218 45.4435 0.0202152
67.6074 41.4991 0.0213951
70.0462 39.6572 0.0196814
72.4902 37.512 0.0135858
70.134 37.5214 2
67.8432 39.5129 2
67.2346 43.4724 2
65.5699 41.213 2
66.0817 47.4234 2
64.6685 44.8548 2
67.9395 37.522 3.9775
65.8005 39.3718 3.97719
65.1913 43.03 3.97834
63.7737 40.9342 3.97794
63.9834 46.7251 3.97945
62.8278 44.2248 3.97955
70.0633 35.392 0.019034
69.4737 31.149 0.0182049
67.6659 33.5891 0.0210033
66.7836 29.6189 0.020464
62.3425 12.6512 0.00802905
62.2022 15.7734 0.0133045
61.8224 18.6688 0.0157465
65.5367 25.6917 0.0186022
64.1626 28.2468 0.02042
62.8745 24.6231 0.0184664
61.2325 21.3231 0.0181556
60.4464 23.7078 0.0183823
59.2474 12.7693 0.0130965
56.4067 13.101 0.0154751
55.8744 10.2256 0.0116635
67.8799 35.5465 2
67.2762 31.6194 2
65.712 33.9238 2
64.6782 30.1852 2
60.7772 14.2128 2
60.6185 17.1123 2
60.2344 19.7971 2
63.5552 26.4027 2
62.2774 28.7658 2
59.6794 22.2373 2
61.0668 25.3203 2
59.0019 24.2986 2
57.9126 14.3186 2
55.3149 14.6316 2
54.0374 9.12879 2
54.7875 12.0004 2
65.8901 35.6653 3.97764
65.2017 32.1492 3.97827
64.3019 34.2461 3.97755
62.615 30.6262 3.97845
61.6729 27.0575 3.98035
60.8742 29.1263 3.98167
59.314 15.6551 3.98486
59.3568 25.7764 3.98263
59.131 18.3376 3.98392
58.7543 20.8324 3.98143
58.3058 23.0692 3.97991
57.9938 24.6419 3.98293
52.112 8.14798 3.98966
53.0581 11.0073 3.98591
56.6796 15.7271 3.98398
53.8111 13.6676 3.98321
54.3792 15.9829 3.98329
55.0699 67.9341 0.00686173
65.3456 49.4156 0.0188994
55.8038 64.9151 0.0118515
59.2205 62.3747 0.0128873
56.3283 62.0991 0.0152258
63.7196 53.3046 0.0164952
62.4611 50.6657 0.0192331
59.3378 59.5706 0.0151796
59.2986 57.0311 0.0172736
61.0925 54.327 0.0162382
59.2567 55.2039 0.0163853
53.0421 69.0018 2
53.9659 66.0173 2
57.8835 60.882 2
54.6839 63.2145 2
55.214 60.6271 2
63.2133 48.6723 2
61.7601 52.5915 2
60.298 50.0364 2
58.0247 58.2776 2
59.3452 53.968 2
58.1389 55.8341 2
52.0694 67.0032 3.98932
52.9526 64.224 3.98576
56.6525 59.5021 3.98392
53.6822 61.6304 3.98382
[...]
POINT_DATA 3012
SCALARS Jp_lamdaP float 4
LOOKUP_TABLE default
1 1 1 1
1 1 1 1
1 1 1 1
1 1 1 1
1 1 1 1
1 1 1 1
0.999971 1 1 0.999971
1 1 1 1
1 1 1 1
1 1 1 1
1 1 1 1
0.999999 1 1 0.999999
1 1 1 1
1 1 1 1
1 1 1 1
1 1 1 1
1 1 1 1
1 1 1 1
0.999972 1 1 0.999972
1 1 1 1
1 1 1 1
1 1 1 1
0.999942 1 1 0.999942
0.999963 1 1 0.999963
1 1 1 1
0.999979 1 1 0.999979
0.999898 1 1 0.999898
1 1 1 1
1 1 1 1
1 1 1 1
1 1 1 1
0.999999 1 1 0.999999
1 1 1 1
1 1 1 1
0.999984 1 1 0.999984
1 1 1 1
0.999997 1 1 0.999997
1 1 1 1
0.999918 1 1 0.999918
1 1 1 1
1 1 1 1
1 1 1 1
1 1 1 1
1 1 1 1
0.999957 1 1 0.999957
1 1 1 1
0.999969 1 1 0.999969
1 1 1 1
1 1 1 1
1 1 1 1
0.999972 1 1 0.999972
1 1 1 1
1 1 1 1
1 1 1 1
1 1 1 1
0.999943 1 1 0.999943
0.99998 1 1 0.99998
0.999964 1 1 0.999964
0.999896 1 1 0.999896
1 1 1 1
1 1 1 1
0.99996 1 1 0.99996
0.999934 1 1 0.999934
0.999953 1 1 0.999953
0.999827 1 1 0.999827
0.999868 1 1 0.999868
1 1 1 1
0.999986 1 1 0.999986
0.999918 1 1 0.999918
0.999782 1 1 0.999782
1 1 1 1
1 1 1 1
1 1 1 1
1 1 1 1
1 1 1 1
1 1 1 1
0.999986 1 1 0.999986
1 1 1 1
0.999998 1 1 0.999998
1 1 1 1
0.999918 1 1 0.999918
1 1 1 1
1 1 1 1
0.999977 1 1 0.999977
0.999991 1 1 0.999991
0.999858 1 1 0.999858
1 1 1 1
0.999907 1 1 0.999907
0.99993 1 1 0.99993
0.999828 1 1 0.999828
1 1 1 1
1 1 1 1
1 1 1 1
1 1 1 1
1 1 1 1
1 1 1 1
0.999959 1 1 0.999959
1 1 1 1
0.99997 1 1 0.99997
1 1 1 1
0.999952 1 1 0.999952
0.999964 1 1 0.999964
0.99977 1 1 0.99977
0.999973 1 1 0.999973
0.999796 1 1 0.999796
1 1 1 1
1 1 1 1
1 1 1 1
1 1 1 1
0.999943 1 1 0.999943
0.999964 1 1 0.999964
0.999981 1 1 0.999981
0.999893 1 1 0.999893
1 1 1 1
1 1 1 1
0.999944 1 1 0.999944
0.999935 1 1 0.999935
1 1 1 1
0.999993 1 1 0.999993
0.999954 1 1 0.999954
0.99982 1 1 0.99982
0.999915 1 1 0.999915
0.999873 1 1 0.999873
0.999782 1 1 0.999782
0.999956 1 1 0.999956
0.999933 1 1 0.999933
0.999785 1 1 0.999785
0.999798 1 1 0.999798
0.999842 1 1 0.999842
0.999718 1 1 0.999718
1 1 1 1
0.999769 1 1 0.999769
1 1 1 1
0.999922 1 1 0.999922
0.999796 1 1 0.999796
0.999736 1 1 0.999736
1 1 1 1
0.999945 1 1 0.999945
1 1 1 1
1 1 1 1
0.999988 1 1 0.999988
1 1 1 1
1 1 1 1
0.999998 1 1 0.999998
0.999918 1 1 0.999918
1 1 1 1
1 1 1 1
0.999979 1 1 0.999979
0.999993 1 1 0.999993
0.999859 1 1 0.999859
1 1 1 1
0.999908 1 1 0.999908
0.99993 1 1 0.99993
0.999825 1 1 0.999825
1 1 1 1
1 1 1 1
0.999952 1 1 0.999952
0.999832 1 1 0.999832
0.999887 1 1 0.999887
0.999761 1 1 0.999761
0.999942 1 1 0.999942
0.999815 1 1 0.999815
0.999834 1 1 0.999834
0.999787 1 1 0.999787
1 1 1 1
1 1 1 1
1 1 1 1
1 1 1 1
1 1 1 1
1 1 1 1
1 1 1 1
0.999971 1 1 0.999971
0.999961 1 1 0.999961
1 1 1 1
1 1 1 1
0.999953 1 1 0.999953
0.999965 1 1 0.999965
0.99977 1 1 0.99977
0.999974 1 1 0.999974
0.999797 1 1 0.999797
0.999952 1 1 0.999952
0.999758 1 1 0.999758
0.999783 1 1 0.999783
0.999679 1 1 0.999679
0.999812 1 1 0.999812
0.999707 1 1 0.999707
1 1 1 1
1 1 1 1
0.999928 1 1 0.999928
0.999935 1 1 0.999935
1 1 1 1
1 1 1 1
0.999955 1 1 0.999955
0.999813 1 1 0.999813
0.999878 1 1 0.999878
0.999912 1 1 0.999912
0.999783 1 1 0.999783
0.999955 1 1 0.999955
0.999933 1 1 0.999933
0.99977 1 1 0.99977
0.999803 1 1 0.999803
1 1 1 1
1 1 1 1
0.999927 1 1 0.999927
0.999843 1 1 0.999843
0.999709 1 1 0.999709
0.999794 1 1 0.999794
0.999773 1 1 0.999773
0.999737 1 1 0.999737
1 1 1 1
0.999945 1 1 0.999945
0.999762 1 1 0.999762
0.99979 1 1 0.99979
0.999685 1 1 0.999685
0.99968 1 1 0.99968
0.999753 1 1 0.999753
0.999675 1 1 0.999675
1 1 1 1
0.999727 1 1 0.999727
0.999933 1 1 0.999933
0.999814 1 1 0.999814
0.999748 1 1 0.999748
0.999725 1 1 0.999725
0.99994 1 1 0.99994
0.999956 1 1 0.999956
0.999833 1 1 0.999833
0.999981 1 1 0.999981
1 1 1 1
1 1 1 1
0.999995 1 1 0.999995
0.999859 1 1 0.999859
1 1 1 1
0.99993 1 1 0.99993
0.999908 1 1 0.999908
0.999822 1 1 0.999822
1 1 1 1
1 1 1 1
0.999952 1 1 0.999952
0.999832 1 1 0.999832
0.999888 1 1 0.999888
0.99976 1 1 0.99976
0.999942 1 1 0.999942
0.999818 1 1 0.999818
0.999833 1 1 0.999833
0.999783 1 1 0.999783
1 1 1 1
0.999948 1 1 0.999948
0.999958 1 1 0.999958
0.999848 1 1 0.999848
0.999737 1 1 0.999737
0.999794 1 1 0.999794
0.999713 1 1 0.999713
0.999844 1 1 0.999844
0.999775 1 1 0.999775
0.999775 1 1 0.999775
0.999754 1 1 0.999754
0.999984 1 1 0.999984
1 1 1 1
1 1 1 1
1 1 1 1
1 1 1 1
1 1 1 1
1 1 1 1
1 1 1 1
1 1 1 1
0.999975 1 1 0.999975
0.999967 1 1 0.999967
0.999797 1 1 0.999797
0.99977 1 1 0.99977
0.999954 1 1 0.999954
1 1 1 1
0.999951 1 1 0.999951
0.999758 1 1 0.999758
0.999783 1 1 0.999783
0.999679 1 1 0.999679
0.999812 1 1 0.999812
0.999707 1 1 0.999707
0.999756 1 1 0.999756
0.99967 1 1 0.99967
0.999692 1 1 0.999692
0.99965 1 1 0.99965
0.999722 1 1 0.999722
0.999676 1 1 0.999676
0.999954 1 1 0.999954
0.999933 1 1 0.999933
0.999755 1 1 0.999755
0.999808 1 1 0.999808
1 1 1 1
1 1 1 1
0.999932 1 1 0.999932
0.999844 1 1 0.999844
0.999701 1 1 0.999701
0.999777 1 1 0.999777
0.999792 1 1 0.999792
0.999738 1 1 0.999738
1 1 1 1
0.999945 1 1 0.999945
0.999756 1 1 0.999756
0.99979 1 1 0.99979
0.999683 1 1 0.999683
0.99969 1 1 0.99969
1 1 1 1
0.999932 1 1 0.999932
0.99982 1 1 0.99982
0.999753 1 1 0.999753
0.999672 1 1 0.999672
0.999742 1 1 0.999742
0.999728 1 1 0.999728
0.999724 1 1 0.999724
0.99994 1 1 0.99994
0.999829 1 1 0.999829
0.999955 1 1 0.999955
0.999682 1 1 0.999682
0.999682 1 1 0.999682
0.999639 1 1 0.999639
0.999645 1 1 0.999645
0.99971 1 1 0.99971
0.999675 1 1 0.999675
0.999938 1 1 0.999938
0.999721 1 1 0.999721
0.999839 1 1 0.999839
0.999757 1 1 0.999757
0.999711 1 1 0.999711
0.999738 1 1 0.999738
0.99997 1 1 0.99997
0.999839 1 1 0.999839
0.999823 1 1 0.999823
0.999784 1 1 0.999784
0.999832 1 1 0.999832
1 1 1 1
1 1 1 1
0.999952 1 1 0.999952
0.999888 1 1 0.999888
0.99976 1 1 0.99976
0.999942 1 1 0.999942
0.999833 1 1 0.999833
0.999822 1 1 0.999822
0.999779 1 1 0.999779
1 1 1 1
0.999948 1 1 0.999948
0.999958 1 1 0.999958
0.999848 1 1 0.999848
0.999737 1 1 0.999737
0.999795 1 1 0.999795
0.999712 1 1 0.999712
0.999844 1 1 0.999844
0.999779 1 1 0.999779
0.999773 1 1 0.999773
0.999762 1 1 0.999762
1 1 1 1
0.999966 1 1 0.999966
0.999848 1 1 0.999848
0.999851 1 1 0.999851
0.999783 1 1 0.999783
0.999696 1 1 0.999696
0.999747 1 1 0.999747
0.999695 1 1 0.999695
0.999779 1 1 0.999779
0.999749 1 1 0.999749
0.999715 1 1 0.999715
0.999979 1 1 0.999979
0.999888 1 1 0.999888
0.999988 1 1 0.999988
0.999985 1 1 0.999985
1 1 1 1
1 1 1 1
1 1 1 1
1 1 1 1
1 1 1 1
1 1 1 1
1 1 1 1
1 1 1 1
1 1 1 1
1 1 1 1
1 1 1 1
0.999812 1 1 0.999812
0.999783 1 1 0.999783
0.999707 1 1 0.999707
0.999679 1 1 0.999679
0.999758 1 1 0.999758
0.999951 1 1 0.999951
0.999756 1 1 0.999756
0.99967 1 1 0.99967
0.999692 1 1 0.999692
0.99965 1 1 0.99965
0.999722 1 1 0.999722
0.999676 1 1 0.999676
0.999667 1 1 0.999667
0.999645 1 1 0.999645
0.999659 1 1 0.999659
0.999643 1 1 0.999643
0.999689 1 1 0.999689
0.999687 1 1 0.999687
0.99975 1 1 0.99975
0.99979 1 1 0.99979
0.99968 1 1 0.99968
0.999699 1 1 0.999699
1 1 1 1
0.999932 1 1 0.999932
0.999826 1 1 0.999826
0.999754 1 1 0.999754
0.99967 1 1 0.99967
0.999728 1 1 0.999728
0.999736 1 1 0.999736
0.999723 1 1 0.999723
0.99994 1 1 0.99994
0.999826 1 1 0.999826
0.999955 1 1 0.999955
0.999677 1 1 0.999677
0.999682 1 1 0.999682
0.999634 1 1 0.999634
0.999647 1 1 0.999647
0.999938 1 1 0.999938
0.999839 1 1 0.999839
0.999763 1 1 0.999763
0.999713 1 1 0.999713
0.999678 1 1 0.999678
0.999706 1 1 0.999706
0.999721 1 1 0.999721
0.999742 1 1 0.999742
0.999839 1 1 0.999839
0.999778 1 1 0.999778
0.999969 1 1 0.999969
0.999824 1 1 0.999824
0.999635 1 1 0.999635
0.999632 1 1 0.999632
0.999611 1 1 0.999611
0.999642 1 1 0.999642
0.999712 1 1 0.999712
0.999693 1 1 0.999693
0.999843 1 1 0.999843
0.999747 1 1 0.999747
0.999782 1 1 0.999782
0.999714 1 1 0.999714
0.999688 1 1 0.999688
0.999745 1 1 0.999745
0.999979 1 1 0.999979
0.999833 1 1 0.999833
0.999789 1 1 0.999789
0.999762 1 1 0.999762
0.999757 1 1 0.999757
1 1 1 1
0.999736 1 1 0.999736
0.999958 1 1 0.999958
0.999948 1 1 0.999948
0.999848 1 1 0.999848
0.999795 1 1 0.999795
0.999712 1 1 0.999712
0.999844 1 1 0.999844
0.999772 1 1 0.999772
0.999784 1 1 0.999784
0.999771 1 1 0.999771
1 1 1 1
0.999967 1 1 0.999967
0.999848 1 1 0.999848
0.999851 1 1 0.999851
0.999782 1 1 0.999782
0.999696 1 1 0.999696
0.999747 1 1 0.999747
0.999693 1 1 0.999693
0.99978 1 1 0.99978
0.999752 1 1 0.999752
0.99972 1 1 0.99972
0.999974 1 1 0.999974
0.999857 1 1 0.999857
0.999783 1 1 0.999783
0.999782 1 1 0.999782
0.999755 1 1 0.999755
0.999689 1 1 0.999689
0.999723 1 1 0.999723
0.99971 1 1 0.99971
0.999725 1 1 0.999725
0.999687 1 1 0.999687
0.99998 1 1 0.99998
0.999863 1 1 0.999863
0.999881 1 1 0.999881
0.999816 1 1 0.999816
0.999896 1 1 0.999896
0.99999 1 1 0.99999
0.999988 1 1 0.999988
1 1 1 1
0.999986 1 1 0.999986
1 1 1 1
1 1 1 1
1 1 1 1
1 1 1 1
1 1 1 1
1 1 1 1
1 1 1 1
1 1 1 1
1 1 1 1
1 1 1 1
1 1 1 1
0.999722 1 1 0.999722
0.999692 1 1 0.999692
0.999676 1 1 0.999676
0.999649 1 1 0.999649
0.99967 1 1 0.99967
0.999756 1 1 0.999756
0.999667 1 1 0.999667
0.999645 1 1 0.999645
0.999659 1 1 0.999659
0.999642 1 1 0.999642
0.999689 1 1 0.999689
0.999687 1 1 0.999687
0.99964 1 1 0.99964
0.999641 1 1 0.999641
0.999656 1 1 0.999656
0.999635 1 1 0.999635
0.999694 1 1 0.999694
0.999703 1 1 0.999703
0.999671 1 1 0.999671
0.999681 1 1 0.999681
0.999629 1 1 0.999629
0.999649 1 1 0.999649
0.999938 1 1 0.999938
0.999839 1 1 0.999839
0.999769 1 1 0.999769
0.999715 1 1 0.999715
0.999681 1 1 0.999681
0.999721 1 1 0.999721
0.9997 1 1 0.9997
0.999745 1 1 0.999745
0.99984 1 1 0.99984
0.999773 1 1 0.999773
0.999968 1 1 0.999968
0.999825 1 1 0.999825
0.999635 1 1 0.999635
0.999633 1 1 0.999633
0.999608 1 1 0.999608
0.999643 1 1 0.999643
0.999844 1 1 0.999844
0.999787 1 1 0.999787
0.999713 1 1 0.999713
0.999709 1 1 0.999709
0.999703 1 1 0.999703
0.999686 1 1 0.999686
0.999748 1 1 0.999748
0.999754 1 1 0.999754
0.99979 1 1 0.99979
0.999754 1 1 0.999754
0.999761 1 1 0.999761
0.999969 1 1 0.999969
0.999836 1 1 0.999836
0.999616 1 1 0.999616
0.999599 1 1 0.999599
0.999661 1 1 0.999661
0.999732 1 1 0.999732
0.999797 1 1 0.999797
0.999779 1 1 0.999779
0.999744 1 1 0.999744
0.999662 1 1 0.999662
0.999672 1 1 0.999672
0.999969 1 1 0.999969
0.999867 1 1 0.999867
0.999766 1 1 0.999766
0.999767 1 1 0.999767
0.999715 1 1 0.999715
0.999733 1 1 0.999733
1 1 1 1
0.999967 1 1 0.999967
0.999695 1 1 0.999695
0.99985 1 1 0.99985
0.999848 1 1 0.999848
0.99978 1 1 0.99978
0.999747 1 1 0.999747
0.999691 1 1 0.999691
0.99978 1 1 0.99978
0.999724 1 1 0.999724
0.999755 1 1 0.999755
0.999974 1 1 0.999974
0.999856 1 1 0.999856
0.999787 1 1 0.999787
0.999781 1 1 0.999781
0.999751 1 1 0.999751
0.999687 1 1 0.999687
0.999722 1 1 0.999722
0.999712 1 1 0.999712
0.999721 1 1 0.999721
0.99968 1 1 0.99968
0.999864 1 1 0.999864
0.999772 1 1 0.999772
0.999741 1 1 0.999741
0.999737 1 1 0.999737
0.999728 1 1 0.999728
0.999744 1 1 0.999744
0.99968 1 1 0.99968
0.999697 1 1 0.999697
0.999683 1 1 0.999683
0.999616 1 1 0.999616
0.999982 1 1 0.999982
0.999868 1 1 0.999868
0.999785 1 1 0.999785
0.999875 1 1 0.999875
0.999896 1 1 0.999896
0.999806 1 1 0.999806
0.999754 1 1 0.999754
0.999803 1 1 0.999803
0.999902 1 1 0.999902
0.999992 1 1 0.999992
0.999991 1 1 0.999991
1 1 1 1
0.999989 1 1 0.999989
1 1 1 1
1 1 1 1
1 1 1 1
1 1 1 1
1 1 1 1
1 1 1 1
1 1 1 1
1 1 1 1
1 1 1 1
1 1 1 1
1 1 1 1
0.999688 1 1 0.999688
0.999659 1 1 0.999659
0.999688 1 1 0.999688
0.99964 1 1 0.99964
0.999644 1 1 0.999644
0.999667 1 1 0.999667
0.999639 1 1 0.999639
0.999641 1 1 0.999641
0.999653 1 1 0.999653
0.999629 1 1 0.999629
0.999694 1 1 0.999694
0.999711 1 1 0.999711
0.999644 1 1 0.999644
0.99964 1 1 0.99964
0.999655 1 1 0.999655
0.999748 1 1 0.999748
0.999636 1 1 0.999636
0.999634 1 1 0.999634
0.999605 1 1 0.999605
0.999644 1 1 0.999644
0.999844 1 1 0.999844
0.999791 1 1 0.999791
0.999713 1 1 0.999713
0.999707 1 1 0.999707
0.999713 1 1 0.999713
0.999748 1 1 0.999748
0.999683 1 1 0.999683
0.999763 1 1 0.999763
0.99979 1 1 0.99979
0.999752 1 1 0.999752
0.99976 1 1 0.99976
0.99996 1 1 0.99996
0.999838 1 1 0.999838
0.999613 1 1 0.999613
0.999603 1 1 0.999603
0.999665 1 1 0.999665
0.999797 1 1 0.999797
0.999751 1 1 0.999751
0.99966 1 1 0.99966
0.999728 1 1 0.999728
0.999685 1 1 0.999685
0.999777 1 1 0.999777
0.999969 1 1 0.999969
0.999766 1 1 0.999766
0.999737 1 1 0.999737
0.999717 1 1 0.999717
0.999769 1 1 0.999769
0.999859 1 1 0.999859
0.999607 1 1 0.999607
0.999598 1 1 0.999598
0.999698 1 1 0.999698
0.999775 1 1 0.999775
0.999767 1 1 0.999767
0.999719 1 1 0.999719
0.999686 1 1 0.999686
0.999622 1 1 0.999622
0.999977 1 1 0.999977
0.999884 1 1 0.999884
0.999787 1 1 0.999787
0.999696 1 1 0.999696
0.999738 1 1 0.999738
0.999698 1 1 0.999698
0.999975 1 1 0.999975
0.999856 1 1 0.999856
0.999686 1 1 0.999686
0.999781 1 1 0.999781
0.99979 1 1 0.99979
0.999747 1 1 0.999747
0.99972 1 1 0.99972
0.999714 1 1 0.999714
0.999718 1 1 0.999718
0.999673 1 1 0.999673
0.999864 1 1 0.999864
0.999775 1 1 0.999775
0.999747 1 1 0.999747
0.999741 1 1 0.999741
0.999731 1 1 0.999731
0.999748 1 1 0.999748
0.999683 1 1 0.999683
0.999714 1 1 0.999714
0.999679 1 1 0.999679
0.99961 1 1 0.99961
0.999775 1 1 0.999775
0.999715 1 1 0.999715
0.999703 1 1 0.999703
0.999704 1 1 0.999704
0.999754 1 1 0.999754
0.999745 1 1 0.999745
0.999614 1 1 0.999614
0.999897 1 1.00031 0.999589
0.999873 1 1 0.999873
0.99979 1 1 0.99979
0.999739 1 1 0.999739
0.999896 1 1 0.999896
0.999796 1 1 0.999796
0.999902 1 1 0.999902
0.999747 1 1 0.999747
0.999806 1 1 0.999806
0.999708 1 1 0.999708
0.999743 1 1 0.999743
0.999808 1 1 0.999808
0.999905 1 1 0.999905
0.999993 1 1 0.999993
0.999992 1 1 0.999992
1 1 1 1
0.999991 1 1 0.999991
1 1 1 1
1 1 1 1
1 1 1 1
1 1 1 1
1 1 1 1
1 1 1 1
1 1 1 1
1 1 1 1
1 1 1 1
1 1 1 1
1 1 1 1
0.999694 1 1 0.999694
0.99965 1 1 0.99965
0.999718 1 1 0.999718
0.999623 1 1 0.999623
0.999642 1 1 0.999642
0.999639 1 1 0.999639
0.999641 1 1 0.999641
0.999639 1 1 0.999639
0.99966 1 1 0.99966
0.999744 1 1 0.999744
0.999642 1 1 0.999642
0.999651 1 1 0.999651
0.999706 1 1 0.999706
0.99961 1 1 0.99961
0.999608 1 1 0.999608
0.999668 1 1 0.999668
0.999796 1 1 0.999796
0.999757 1 1 0.999757
0.999659 1 1 0.999659
0.999724 1 1 0.999724
0.999774 1 1 0.999774
0.999697 1 1 0.999697
0.999766 1 1 0.999766
0.999741 1 1 0.999741
0.999719 1 1 0.999719
0.99997 1 1 0.99997
0.999772 1 1 0.999772
0.999852 1 1 0.999852
0.999613 1 1 0.999613
0.999596 1 1 0.999596
0.999691 1 1 0.999691
0.999766 1 1 0.999766
0.999693 1 1 0.999693
0.999627 1 1 0.999627
0.999781 1 1 0.999781
0.999718 1 1 0.999718
0.999984 1 1 0.999984
0.999884 1 1 0.999884
0.999738 1 1 0.999738
0.999699 1 1 0.999699
0.9997 1 1 0.9997
0.999782 1 1 0.999782
0.999627 1 1 0.999627
0.999612 1 1 0.999612
0.999739 1 0.999962 0.999777
0.999789 1 1 0.999789
0.999725 1 1 0.999725
0.999931 1 1.00032 0.999613
0.99964 1 1 0.99964
0.999997 1 1 0.999997
0.999924 1 1 0.999924
0.999888 1 1 0.999888
0.999789 1 1 0.999789
0.999711 1 1 0.999711
0.999658 1 1 0.999658
0.999716 1 1 0.999716
0.99967 1 1 0.99967
0.999864 1 1 0.999864
0.999778 1 1 0.999778
0.999753 1 1 0.999753
0.999745 1 1 0.999745
0.999753 1 1 0.999753
0.999734 1 1 0.999734
0.999685 1 1 0.999685
0.999731 1 1 0.999731
0.999674 1 1 0.999674
0.999604 1 1 0.999604
0.999774 1 1 0.999774
0.999721 1 1 0.999721
0.999708 1 1 0.999708
0.999708 1 1 0.999708
0.999756 1 1 0.999756
0.999741 1 1 0.999741
0.999622 1 1 0.999622
0.99973 1 1.00014 0.999587
0.999728 1 1 0.999728
0.999709 1 1 0.999709
0.999684 1 1 0.999684
0.999657 1 1 0.999657
0.999771 1 1 0.999771
0.999597 1 1 0.999597
1.00002 1 1.00048 0.999548
0.999795 1 1 0.999795
0.99974 1 1 0.99974
0.999699 1 1 0.999699
0.999902 1 1 0.999902
0.99981 1 1 0.99981
0.999739 1 1 0.999739
0.999905 1 1 0.999905
0.999807 1 1 0.999807
0.999702 1 1 0.999702
0.999751 1 1 0.999751
0.999674 1 1 0.999674
0.999695 1 1 0.999695
0.999755 1 1 0.999755
0.999817 1 1 0.999817
0.999905 1 1 0.999905
0.999992 1 1 0.999992
0.999993 1 1 0.999993
1 1 1 1
0.999993 1 1 0.999993
1 1 1 1
1 1 1 1
1 1 1 1
1 1 1 1
1 1 1 1
0.999999 1 1 0.999999
1 1 1 1
1 1 1 1
1 1 1 1
1 1 1 1
1 1 1 1
1 1 1 1
0.999741 1 1 0.999741
0.999665 1 1 0.999665
0.999639 1 1 0.999639
0.999638 1 1 0.999638
0.999647 1 1 0.999647
0.999645 1 1 0.999645
0.999718 1 1 0.999718
0.999656 1 1 0.999656
0.999665 1 1 0.999665
0.999744 1 1 0.999744
0.999619 1 1 0.999619
0.999594 1 1 0.999594
0.999684 1 1 0.999684
0.999766 1 1 0.999766
0.999701 1 1 0.999701
0.999632 1 1 0.999632
0.999786 1 1 0.999786
0.999717 1 1 0.999717
0.999738 1 1 0.999738
0.999701 1 1 0.999701
0.999705 1 1 0.999705
0.999991 1 1 0.999991
0.999884 1 1 0.999884
0.999776 1 1 0.999776
0.999624 1 1 0.999624
0.999996 1 1 0.999996
0.999918 1 1 0.999918
0.999614 1 1 0.999614
0.999762 1 1 0.999762
0.999729 1 1 0.999729
0.999633 1 1 0.999632
0.999719 1 1.0001 0.999616
0.999787 1 1 0.999787
0.999903 1 1 0.999903
0.999788 1 1 0.999788
0.999717 1 1 0.999717
0.999678 1 1 0.999678
0.99965 1 1 0.99965
0.999713 1 1 0.999713
0.999613 1 1 0.999613
0.999688 1 1 0.999688
0.999495 1 0.999638 0.999857
0.99968 1 1 0.99968
0.999694 1 1 0.999694
1.0005 1 1.00092 0.999576
0.999922 1 1 0.999922
0.999914 1 1 0.999914
0.99985 1 1 0.99985
0.999793 1 1 0.999793
0.999728 1 1 0.999728
0.99965 1 1 0.99965
0.999614 1 1 0.999614
0.999678 1 1 0.999678
0.999773 1 1 0.999773
0.999727 1 1 0.999727
0.999758 1 1 0.999758
0.999738 1 1 0.999738
0.999712 1 1 0.999712
0.999713 1 1 0.999713
0.999629 1 1 0.999629
0.999607 1 1.00002 0.999584
0.999728 1 1 0.999728
0.999726 1 1 0.999726
0.999683 1 1 0.999683
0.99967 1 1.00002 0.999648
0.999767 1 1 0.999767
0.999599 1 1 0.999599
0.999991 1 1.00045 0.999545
0.999686 1 1 0.999686
0.99988 1.00061 0.999532 0.99974
0.999656 1 1 0.999656
0.999987 1 1.00041 0.999579
0.999599 1 1 0.999599
1.00046 1 1.00094 0.999513
0.990448 1.00487 0.986112 0.999533
0.99974 1 1 0.99974
0.9997 1 1 0.9997
0.999672 1 1 0.999672
0.999905 1 1 0.999905
0.999807 1 1 0.999807
0.999758 1 1 0.999758
0.999696 1 1 0.999696
0.999905 1 1 0.999905
0.999812 1 1 0.999812
0.999672 1 1 0.999672
0.999755 1 1 0.999755
0.999702 1 1 0.999702
0.999653 1 1 0.999653
0.999708 1 1 0.999708
0.999758 1 1 0.999758
0.999803 1 1 0.999803
0.99989 1 1 0.99989
0.999824 1 1 0.999824
0.999889 1 1 0.999889
0.999992 1 1 0.999992
0.999992 1 1 0.999992
1 1 1 1
0.999992 1 1 0.999992
1 1 1 1
1 1 1 1
1 1 1 1
1 1 1 1
1 1 1 1
1 1 1 1
0.999999 1 1 0.999999
1 1 1 1
1 1 1 1
1 1 1 1
1 1 1 1
1 1 1 1
1 1 1 1
0.99973 1 1 0.99973
0.99964 1 1 0.99964
0.999652 1 1 0.999652
0.999656 1 1 0.999656
0.999669 1 1 0.999669
0.999752 1 1 0.999752
0.99968 1 1 0.99968
0.996388 1.00128 0.995308 0.99981
0.999547 1 0.999705 0.999841
0.999941 1 1 0.999941
0.999621 1 1 0.999621
0.999616 1 1 0.999616
0.999748 1 1 0.999748
0.999732 1 1 0.999732
0.999624 1 1 0.999624
0.999619 1 1 0.999619
0.999784 1 1 0.999784
0.999719 1 1 0.999719
0.999686 1 1 0.999686
0.999642 1 1 0.999642
0.999995 1 1 0.999995
0.999714 1 1 0.999714
0.999917 1 1 0.999917
0.999788 1 1 0.999788
0.999913 1 1 0.999913
0.999606 1 1 0.999606
0.999929 1 1 0.999929
0.999914 1 1 0.999914
0.999839 1 1 0.999839
0.999689 1 1 0.999689
0.999389 1 0.999552 0.999837
0.999696 1 1 0.999696
1.00033 1 1.00076 0.999573
0.999683 1 1 0.999683
0.999801 1 1 0.999801
0.999724 1 1 0.999724
0.999676 1 1 0.999676
0.999656 1 1.00003 0.999622
0.999655 1 1 0.999655
0.999639 1 1.00004 0.999594
0.997275 1 0.997464 0.99981
0.99951 1 0.999765 0.999745
1.00019 1 1.0006 0.999587
1.00034 1 1.00069 0.999648
0.99984 1 1 0.99984
0.999812 1 1 0.999812
0.999777 1 1 0.999777
0.999727 1 1 0.999727
0.999676 1 1 0.999676
0.999612 1 1 0.999612
1.0012 1 1.0016 0.9996
0.999728 1 1 0.999728
0.999683 1 1 0.999683
0.999743 1 1 0.999743
0.999763 1 1 0.999763
0.9996 1 1 0.9996
0.999639 1 1 0.999639
0.999883 1 1.00034 0.999542
0.999689 1 1 0.999689
1.00001 1.00061 0.999651 0.999749
0.999656 1 1 0.999656
0.999843 1 1.00027 0.999578
0.999686 1.00007 1 0.999613
1.00107 1 1.00156 0.99951
0.994956 1.00746 0.98801 0.999568
0.99966 1 1 0.99966
1.00079 1.00123 1 0.999567
0.999626 1 1 0.999626
1.00237 1 1.00284 0.999531
1.00036 1 1.00086 0.999501
0.96219 0.963833 1.00004 0.998256
0.990857 1.00115 0.990163 0.999548