# vtk DataFile Version 2.0
Wound Healing Simulation
ASCII
DATASET UNSTRUCTURED_GRID
POINTS 3012 float
69.9759 18.75 4
67.2507 60.3285 4
69.976 18.75 2
73.0099 25.446 4
71.1327 20.9142 4
68.6801 16.6661 4
67.8243 19.9262 3.97972
67.2507 60.3286 2
71.1327 54.0858 4
68.6801 58.3339 4
65.6939 62.2254 4
65.3109 59.0006 3.97872
74.6784 42.3946 4
73.7221 47.2057 4
69.9759 18.75 0
73.0099 25.446 2
68.6801 16.6661 2
71.1327 20.9142 2
67.8249 19.9298 2
74.6792 32.6053 4
73.7222 27.7943 4
72.1454 23.1494 4
70.6132 26.221 3.97932
68.8845 21.958 3.98014
67.2507 14.6715 4
66.6357 17.9725 3.97883
65.7933 21.0274 3.96893
67.2507 60.3285 0
71.1327 54.0858 2
68.6801 58.3339 2
65.694 62.2255 2
65.3122 58.9963 2
72.1454 51.8506 4
69.9759 56.25 4
68.8352 53.113 3.97933
64.0165 64.0165 4
66.6095 57.1333 3.97924
63.8839 60.7648 3.97903
63.4966 57.7673 3.9697
60.3285 67.2507 4
74.6792 42.3947 2
73.7222 47.2057 2
74.9194 39.9526 4
74.2788 44.8158 4
72.1675 42.0856 3.97924
73.0099 49.554 4
71.2483 46.598 3.97867
73.0099 25.446 0
71.1327 20.9142 0
68.6801 16.6661 0
67.8243 19.9262 0.0202772
74.6792 32.6053 2
73.7222 27.7943 2
67.2508 14.6715 2
72.1455 23.1494 2
70.613 26.2216 2
66.6367 17.977 2
68.8848 21.9603 2
65.7925 21.0284 2
74.9197 35.0474 4
74.2794 30.1841 4
72.1842 32.9435 3.97951
71.2773 28.4315 3.97896
69.8145 24.0595 3.97991
68.3436 26.9526 3.96828
66.7589 22.9348 3.96857
65.694 12.7746 4
65.322 16.1047 3.97811
64.7096 19.1984 3.96925
63.8679 22.0438 3.96575
71.1327 54.0858 0
65.6939 62.2254 0
68.6801 58.3339 0
65.3109 59.0006 0.0212767
72.1455 51.8506 2
69.9759 56.25 2
68.8354 53.1109 2
64.0165 64.0165 2
66.6104 57.1292 2
63.8858 60.7609 2
63.4959 57.7671 2
62.2254 65.694 4
58.8936 65.4137 3.98869
69.7678 50.9889 3.97906
67.7825 55.1671 3.97941
66.6458 52.2078 3.96795
62.3344 62.4264 3.98209
64.6569 56.0289 3.96927
62.1985 59.3968 3.9689
61.8149 56.6726 3.96562
58.3339 68.6801 4
60.3285 67.2508 2
73.7221 47.2057 0
74.6784 42.3946 0
74.9197 39.9526 2
74.2794 44.8159 2
72.167 42.0855 2
73.0099 49.554 2
71.2482 46.5977 2
75 37.5 4
72.4048 39.8023 3.97994
71.7817 44.3528 3.9792
69.8014 41.7897 3.96873
70.5741 48.8135 3.97871
68.909 46.0142 3.96816
74.6792 32.6053 0
73.7222 27.7943 0
67.2507 14.6715 0
72.1454 23.1494 0
70.6132 26.221 0.0206801
68.8845 21.958 0.0198555
66.6357 17.9725 0.0211708
65.7933 21.0274 0.0310736
74.9197 35.0474 2
74.2794 30.1841 2
72.1836 32.9439 2
71.2771 28.432 2
65.694 12.7745 2
65.3236 16.1096 2
69.8145 24.0608 2
68.3434 26.9533 2
64.7088 19.1993 2
66.7584 22.9357 2
63.8678 22.0443 2
72.4127 35.2243 3.97999
71.8032 30.6765 3.97948
69.8375 33.2691 3.96888
68.963 29.0392 3.96836
67.6079 24.9133 3.96835
66.1655 27.6419 3.96698
64.0165 10.9835 4
64.7321 23.8382 3.96621
63.8881 14.3291 3.97919
63.5085 17.4532 3.96968
62.8919 20.33 3.96501
62.0279 22.9666 3.96704
60.6825 11.0997 3.9834
57.6106 11.4543 3.97499
72.1454 51.8506 0
69.9759 56.25 0
68.8352 53.113 0.0206746
64.0165 64.0165 0
63.8839 60.7648 0.0209686
66.6095 57.1333 0.020759
63.4966 57.7673 0.0303041
62.2255 65.694 2
58.8951 65.4126 2
69.7677 50.9878 2
67.783 55.1639 2
66.6452 52.2069 2
62.3365 62.4231 2
64.6561 56.0282 2
62.1977 59.3974 2
61.8142 56.6724 2
60.6671 63.9758 3.98501
57.0247 66.7346 3.99015
57.5561 63.6871 3.97773
67.5039 50.1755 3.96772
65.6981 54.1715 3.96843
64.5086 51.3764 3.96556
60.7696 60.9292 3.97185
62.8099 55.0607 3.96499
60.6487 58.1462 3.96472
60.311 55.7696 3.96431
56.25 69.9759 4
58.3339 68.6801 2
60.3285 67.2507 0
58.9202 9.65719 3.9864
62.2254 9.30607 4
73.0099 49.554 0
74.2788 44.8158 0
71.2483 46.598 0.021334
72.1675 42.0856 0.0207565
74.9194 39.9526 0
75 37.5 2
72.4047 39.8024 2
71.7816 44.3525 2
69.8008 41.7894 2
70.5739 48.8131 2
68.9089 46.0136 2
72.4882 37.5122 3.97957
70.0389 39.6576 3.9689
69.4275 43.9073 3.96856
67.5696 41.4947 3.96873
68.2624 48.1062 3.96783
66.6728 45.4332 3.96771
74.9197 35.0474 0
74.2794 30.1841 0
72.1842 32.9435 0.0204878
71.2773 28.4315 0.0210409
65.694 12.7746 0
65.322 16.1047 0.0218932
69.8145 24.0595 0.0200915
68.3436 26.9526 0.0317222
66.7589 22.9348 0.0314297
64.7096 19.1984 0.0307491
63.8679 22.0438 0.0342487
72.4126 35.2245 2
71.8031 30.677 2
69.8368 33.2696 2
68.963 29.0398 2
64.0165 10.9835 2
63.8903 14.3336 2
63.5077 17.454 2
67.6075 24.9141 2
66.1657 27.6423 2
62.8921 20.3303 2
64.7319 23.8387 2
62.0274 22.9671 2
60.6851 11.1028 2
57.6123 11.4536 2
70.0556 35.3926 3.96901
69.4644 31.1504 3.96858
67.6311 33.5945 3.96837
66.7426 29.6292 3.96735
65.4953 25.7072 3.96653
64.0512 28.2756 3.97063
62.34 12.6569 3.98155
62.7808 24.66 3.96842
62.1943 15.7952 3.97003
61.803 18.6965 3.96512
61.1618 21.3663 3.96522
60.3079 23.766 3.96961
59.2434 12.791 3.97308
55.8728 10.24 3.97761
56.4015 13.1377 3.9723
69.7678 50.9889 0.0209366
62.2254 65.694 0
58.8936 65.4137 0.0113117
67.7825 55.1671 0.0205921
66.6458 52.2078 0.0320486
62.3344 62.4264 0.0179055
62.1985 59.3968 0.0310951
64.6569 56.0289 0.0307286
61.8149 56.6726 0.0343755
60.6692 63.974 2
57.0258 66.734 2
57.5564 63.6882 2
67.5035 50.1747 2
65.6974 54.1707 2
64.5086 51.376 2
60.7689 60.9305 2
62.8098 55.0606 2
60.6484 58.1464 2
60.3114 55.7694 2
55.0707 67.9315 3.99141
59.2162 62.3575 3.97284
55.8034 64.9062 3.98166
56.3227 62.0737 3.97416
65.2954 49.3991 3.96613
63.6866 53.2844 3.96516
62.3548 50.628 3.96734
59.3254 59.542 3.9664
61.0411 54.2908 3.96579
59.2691 56.9919 3.96322
59.2086 55.1602 3.96584
48.1011 68.5769 3.98679
50.9484 69.9312 3.99155
54.0858 71.1327 4
56.25 69.976 2
58.3339 68.6801 0
57.0576 8.33689 3.98738
60.3285 7.74928 4
58.9228 9.65918 2
62.2255 9.30602 2
70.5741 48.8135 0.0212929
71.7817 44.3528 0.020803
68.909 46.0142 0.0318365
69.8014 41.7897 0.0312652
72.4048 39.8023 0.0200621
75 37.5 0
72.4877 37.5123 2
70.0388 39.6575 2
69.4273 43.9068 2
67.5694 41.4945 2
68.2622 48.1055 2
66.6722 45.4328 2
70.1269 37.522 3.96898
67.8107 39.5113 3.9689
67.1896 43.4651 3.96811
65.4539 41.2007 3.97367
66.0298 47.4097 3.96704
64.5392 44.8302 3.97134
72.4127 35.2243 0.02001
71.8032 30.6765 0.020521
69.8375 33.2691 0.0311194
68.963 29.0392 0.0316408
64.0165 10.9835 0
63.8881 14.3291 0.0208121
63.5085 17.4532 0.0303228
67.6079 24.9133 0.0316529
66.1655 27.6419 0.0330167
64.7321 23.8382 0.0337877
62.8919 20.33 0.0349898
62.0279 22.9666 0.0329603
60.6825 11.0997 0.0165972
57.6106 11.4543 0.0250109
70.0555 35.3928 2
69.4643 31.1508 2
67.6311 33.5947 2
66.7425 29.6296 2
62.3424 12.6612 2
62.1935 15.7951 2
61.8023 18.6969 2
65.4953 25.7077 2
64.0497 28.2762 2
61.1608 21.3667 2
62.7801 24.6605 2
60.3076 23.7669 2
59.245 12.7898 2
56.4025 13.1353 2
55.8741 10.2394 2
67.8502 35.5496 3.96882
67.2382 31.6275 3.96792
65.6064 33.9359 3.97334
64.5665 30.2091 3.97164
63.4525 26.4359 3.96953
62.0973 28.8094 3.97497
60.7718 14.2344 3.97204
60.9133 25.3749 3.97186
60.6011 17.1447 3.96576
60.1775 19.8424 3.96294
59.5503 22.2993 3.9663
58.8183 24.3713 3.97244
54.0364 9.14102 3.98002
57.9046 14.3534 3.97166
54.7835 12.0268 3.97392
55.3048 14.6792 3.97018
67.5039 50.1755 0.0322796
57.0247 66.7346 0.00984677
60.6671 63.9758 0.0149889
57.5561 63.6871 0.0222721
65.6981 54.1715 0.0315737
64.5086 51.3764 0.0344422
60.7696 60.9292 0.0281533
60.6487 58.1462 0.0352772
62.8099 55.0607 0.0350067
60.311 55.7696 0.0356861
55.0715 67.9313 2
59.2166 62.3594 2
55.8035 64.9069 2
56.322 62.0761 2
65.2953 49.3987 2
63.6867 53.2842 2
62.3544 50.6276 2
59.3246 59.5432 2
61.0419 54.2908 2
59.27 56.9918 2
59.2103 55.16 2
53.0427 68.9993 3.99143
53.9658 66.0109 3.98401
57.8749 60.8538 3.97229
54.6814 63.2 3.97686
55.2038 60.5922 3.97242
63.093 48.6374 3.96873
61.6766 52.5531 3.96659
60.124 49.9802 3.96935
58.0018 58.242 3.96574
59.2598 53.9182 3.9672
58.0677 55.782 3.96102
50.1078 67.8554 3.9864
47.462 66.5766 3.98293
46.0549 69.1559 3.98705
48.1012 68.5776 2
48.8024 70.7224 3.99166
50.949 69.9311 2
51.8506 72.1454 4
54.0858 71.1327 2
56.25 69.9759 0
55.1024 7.14127 3.98956
58.3339 6.31992 4
57.0597 8.3382 2
60.3286 7.74926 2
58.9202 9.65719 0.0136016
62.2254 9.30607 0
68.2624 48.1062 0.0321715
69.4275 43.9073 0.0314432
66.6728 45.4332 0.0322868
67.5696 41.4947 0.0312667
70.0389 39.6576 0.031099
72.4882 37.5122 0.0204272
70.1264 37.522 2
67.8102 39.5112 2
67.1902 43.4648 2
65.4523 41.2005 2
66.03 47.4093 2
64.5375 44.8297 2
67.9102 37.5226 3.96889
65.6917 39.3658 3.97424
65.0707 43.0117 3.97277
63.584 40.9138 3.97728
63.8526 46.6949 3.96987
62.6257 44.1883 3.97553
70.0556 35.3926 0.0309903
69.4644 31.1504 0.0314193
67.6311 33.5945 0.0316348
66.7426 29.6292 0.0326523
62.34 12.6569 0.0184499
62.1943 15.7952 0.0299735
61.803 18.6965 0.0348845
65.4953 25.7072 0.0334705
64.0512 28.2756 0.0293684
62.7808 24.66 0.031579
61.1618 21.3663 0.034778
60.3079 23.766 0.0303945
59.2434 12.791 0.0269217
56.4015 13.1377 0.0277049
55.8728 10.24 0.0223871
67.8496 35.5497 2
67.2387 31.6277 2
65.6044 33.9362 2
64.5649 30.2096 2
60.7717 14.2354 2
60.6006 17.1447 2
60.1789 19.8424 2
63.4515 26.4365 2
62.0949 28.8103 2
59.5518 22.3 2
60.9128 25.3758 2
58.8173 24.3726 2
57.905 14.3517 2
55.3056 14.678 2
54.0376 9.13945 2
54.7846 12.0238 2
65.7844 35.6714 3.97393
65.085 32.1677 3.97218
64.1391 34.2623 3.97742
62.4178 30.6637 3.97605
61.5028 27.1075 3.97306
60.6459 29.1816 3.97711
59.3024 15.6879 3.96762
59.1436 25.8478 3.97534
59.1 18.3809 3.96276
58.6512 20.8953 3.96317
58.1289 23.147 3.96725
57.7856 24.7251 3.97407
52.1115 8.15684 3.98297
53.0557 11.0283 3.9752
56.6653 15.7718 3.97021
53.8036 13.7091 3.97308
54.3612 16.0354 3.97082
55.0707 67.9315 0.00859384
65.2954 49.3991 0.0338667
55.8034 64.9062 0.0183403
59.2162 62.3575 0.0271644
56.3227 62.0737 0.0258428
63.6866 53.2844 0.034838
62.3548 50.628 0.0326591
59.3254 59.542 0.0336
59.2691 56.9919 0.0367782
61.0411 54.2908 0.0342136
59.2086 55.1602 0.0341645
53.0433 68.9993 2
53.966 66.0117 2
57.874 60.8555 2
54.6809 63.2008 2
55.2034 60.5941 2
63.0921 48.6369 2
61.6772 52.5529 2
60.124 49.9796 2
58.0011 58.243 2
59.2623 53.9181 2
58.0656 55.7809 2
52.0691 66.9982 3.98598
52.9522 64.2128 3.98061
56.6368 59.4681 3.97055
53.6757 61.6077 3.97599
[...]
POINT_DATA 3012
SCALARS Jp_lamdaP float 4
LOOKUP_TABLE default
0.999822 1 1 0.999822
1 1 1 1
0.999828 1 1 0.999828
0.999776 1 1 0.999776
0.999822 1 1 0.999822
0.999814 1 1 0.999814
0.999229 1 1 0.999229
1 1 1 1
1 1 1 1
1 1 1 1
0.999895 1 1 0.999895
0.99938 1 1 0.99938
0.999744 1 1 0.999744
0.999769 1 1 0.999769
0.999828 1 1 0.999828
0.999794 1 1 0.999794
0.999819 1 1 0.999819
0.999832 1 1 0.999832
0.999232 1 1 0.999232
1 1 1 1
0.999755 1 1 0.999755
0.999803 1 1 0.999803
0.999099 1 1 0.999099
0.9992 1 1 0.9992
0.999831 1 1 0.999831
0.999259 1 1 0.999259
1.00051 1.00221 1 0.998298
1 1 1 1
0.9999 1 1 0.9999
0.999913 1 1 0.999913
1 1 1 1
0.999388 1 1 0.999388
0.999794 1 1 0.999794
0.999818 1 1 0.999818
0.999327 1 1 0.999327
1 1 1 1
0.999415 1 1 0.999415
0.999479 1 1 0.999479
0.998476 1.00015 1 0.998325
1 1 1 1
1 1 1 1
0.999883 1 1 0.999883
1 1 1 1
0.999763 1 1 0.999763
0.999027 1 1 0.999027
1 1 1 1
0.99923 1 1 0.99923
0.999809 1 1 0.999809
0.999839 1 1 0.999839
0.99982 1 1 0.99982
0.999237 1 1 0.999237
0.999867 1 1 0.999867
0.999773 1 1 0.999773
0.999842 1 1 0.999842
0.999818 1 1 0.999818
0.999099 1 1 0.999099
0.999263 1 1 0.999263
0.999202 1 1 0.999202
1.00083 1.00255 1 0.998283
1 1 1 1
0.999746 1 1 0.999746
0.999214 1 1 0.999214
0.999063 1 1 0.999063
0.999151 1 1 0.999151
1.00309 1.00509 1 0.998003
1.00155 1.00343 1 0.998133
0.99989 1 1 0.99989
0.999372 1 1 0.999372
0.999302 1.0009 1 0.998401
1.00994 1.01246 1 0.997511
1 1 1 1
1 1 1 1
1 1 1 1
0.999396 1 1 0.999396
1 1 1 1
1 1 1 1
0.999229 1 1 0.999229
0.999972 1 1 0.999972
0.999335 1 1 0.999335
0.999545 1 1 0.999545
0.998378 1.00006 1 0.998322
1 1 1 1
0.999924 1 1 0.999924
0.999165 1 1 0.999165
0.999265 1 1 0.999265
1.00303 1.00514 1 0.9979
0.999714 1 1 0.999714
0.99939 1.00117 1 0.998224
0.998462 1 1 0.998462
0.999232 1.0015 1 0.99773
1 1 1 1
1 1 1 1
1 1 1 1
1 1 1 1
1 1 1 1
0.999878 1 1 0.999878
0.999115 1 1 0.999115
0.999888 1 1 0.999888
0.999176 1 1 0.999176
1 1 1 1
0.999018 1 1 0.999018
0.999206 1 1 0.999206
1.00262 1.00501 1 0.997623
0.999266 1 1 0.999266
1.00443 1.00674 1 0.997701
0.999762 1 1 0.999762
0.999788 1 1 0.999788
0.999851 1 1 0.999851
0.999831 1 1 0.999831
0.9991 1 1 0.9991
0.999207 1 1 0.999207
0.999268 1 1 0.999268
1.00116 1.00289 1 0.998268
1 1 1 1
0.999762 1 1 0.999762
0.999044 1 1 0.999044
0.999061 1 1 0.999061
0.999945 1 1 0.999945
0.999431 1 1 0.999431
0.999153 1 1 0.999153
1.00306 1.00511 1 0.997961
0.999661 1.00128 1 0.998382
1.00178 1.00363 1 0.998162
1.00994 1.01246 1 0.997516
0.999041 1 1 0.999041
0.999043 1 1 0.999043
1.00226 1.00447 1 0.997803
1.00311 1.00523 1 0.997886
1.00287 1.00486 1 0.998017
1.01735 1.02007 1 0.997329
1 1 1 1
1.01231 1.0149 1 0.997448
0.999601 1 1 0.999601
0.998549 1.00013 1 0.998423
1.00749 1.00994 1 0.997574
1.02047 1.02325 1 0.997282
0.999811 1 1 0.999811
1.0005 1 1.00147 0.999029
1 1 1 1
1 1 1 1
0.999235 1 1 0.999235
1 1 1 1
0.999537 1 1 0.999537
0.999341 1 1 0.999341
0.998319 1 1 0.998319
1 1 1 1
0.999941 1 1 0.999941
0.999233 1 1 0.999233
0.999328 1 1 0.999328
1.0025 1.00461 1 0.997902
0.999718 1 1 0.999718
0.999013 1.00079 1 0.998227
0.998461 1 1 0.998461
0.999051 1.00134 1 0.997714
0.999833 1 1 0.999833
0.999978 1 1 0.999978
0.999841 1 1.0006 0.999241
1.00423 1.00645 1 0.99779
1.00121 1.00316 1 0.998063
1.01352 1.01625 1 0.997309
0.998697 1 1 0.998697
1.00395 1.00634 1 0.997628
0.999289 1.0009 1.00057 0.997821
1.00447 1.00695 1 0.997543
1 1 1 1
1 1 1 1
1 1 1 1
0.999884 1 1 0.999884
1 1 1 1
1 1 1 1
1 1 1 1
0.999119 1 1 0.999119
0.999054 1 1 0.999054
1 1 1 1
1 1 1 1
0.99902 1 1 0.99902
0.99915 1 1 0.99915
1.00294 1.00533 1 0.997623
0.999146 1 1 0.999146
1.00451 1.00682 1 0.9977
0.999012 1 1 0.999012
1.00184 1.00427 1 0.997577
1.00362 1.00596 1 0.997672
1.02058 1.0235 1 0.997148
1.00461 1.00689 1 0.99773
1.02133 1.0242 1 0.997205
1 1 1 1
0.999779 1 1 0.999779
0.998858 1 1 0.998858
0.999059 1 1 0.999059
1 1 1 1
0.999491 1 1 0.999491
0.999156 1 1 0.999156
1.00303 1.00512 1 0.99792
1.00202 1.00384 1 0.998192
0.999976 1.00161 1 0.998364
1.00992 1.01243 1 0.997521
0.999038 1 1 0.999038
0.99904 1 1 0.99904
1.00211 1.00442 1 0.997703
1.00313 1.00522 1 0.997915
1 1 1 1
0.999605 1 1 0.999605
0.99879 1.00031 1 0.998481
1.00281 1.00481 1 0.998015
1.01722 1.01998 1 0.997294
1.00716 1.00962 1 0.997563
1.01252 1.01508 1 0.99748
1.02004 1.02281 1 0.997289
0.999874 1 1.00007 0.999801
1.00051 1 1.00148 0.999031
1.00143 1.00384 1 0.997598
1.00276 1.00492 1 0.99785
1.01867 1.02148 1 0.997243
1.01764 1.02047 1 0.997225
1.01478 1.0174 1 0.997421
1.02858 1.03143 1 0.997241
0.999733 1 1.00002 0.999716
1.02228 1.02506 1 0.997288
0.998698 1 1.00011 0.998592
1.00206 1.00437 1 0.997694
1.01819 1.02094 1 0.997308
1.02281 1.02555 1 0.997328
1.00029 1 1.00142 0.998864
0.999513 1 1.00027 0.99924
1.00128 1 1.00283 0.998453
0.999186 1 1 0.999186
1 1 1 1
0.999959 1 1 0.999959
0.999293 1 1 0.999293
1.00198 1.00409 1 0.997904
0.999725 1 1 0.999725
0.998501 1 1.00004 0.99846
0.998605 1.00038 1 0.99823
0.998841 1.00115 1 0.997697
0.999853 1 1 0.999853
0.999985 1 1 0.999985
0.999987 1 1.00074 0.999243
1.00392 1.00615 1 0.99779
1.00061 1.00254 1 0.998068
1.01351 1.01625 1 0.997306
0.998742 1 1.00004 0.9987
1.00379 1.00616 1 0.997637
0.999066 1.00078 1.00047 0.997816
1.00479 1.00728 1 0.997528
0.999997 1 1 0.999997
0.999293 1 1.00034 0.998955
0.999959 1 1.00044 0.999515
1.00025 1 1.00159 0.998659
1.01727 1.02009 1 0.997231
1.00911 1.01167 1 0.997471
1.02261 1.02555 1 0.997137
0.99883 1.00025 1.00049 0.998095
1.01092 1.0135 1 0.997453
1.00596 1.0069 1.00158 0.997494
1.01447 1.01711 1 0.997397
0.999827 1 1 0.999827
1 1 1 1
1 1 1 1
1 1 1 1
1 1 1 1
0.999939 1 1 0.999939
1 1 1 1
0.999873 1 1 0.999872
1 1 1 1
0.999147 1 1 0.999147
0.99909 1 1 0.99909
1.00467 1.00698 1 0.9977
1.00323 1.00562 1 0.997623
0.999022 1 1 0.999022
1 1 1 1
0.999011 1 1 0.999011
1.00203 1.00446 1 0.997577
1.00391 1.00625 1 0.997671
1.02026 1.02318 1 0.997147
1.00459 1.00688 1 0.997729
1.0213 1.02416 1 0.997204
1.00136 1.0038 1 0.99757
1.01949 1.02245 1 0.997106
1.02137 1.02425 1 0.997185
1.03433 1.03721 1 0.997223
1.02042 1.02327 1 0.997212
1.03252 1.0354 1 0.997217
0.999035 1 1 0.999035
0.999038 1 1 0.999038
1.00198 1.00438 1 0.997604
1.00316 1.00522 1 0.997943
1 1 1 1
0.99961 1 1 0.99961
0.999057 1.00052 1 0.998537
1.00276 1.00475 1 0.998013
1.01709 1.01989 1 0.997259
1.0127 1.01523 1 0.997513
1.00686 1.00933 1 0.997552
1.01972 1.02249 1 0.997296
0.999804 1 1.00001 0.99979
1.00042 1 1.00139 0.999033
1.00139 1.00383 1 0.997573
1.00272 1.00489 1 0.997847
1.01883 1.02165 1 0.997244
1.01777 1.02057 1 0.997259
0.999711 1 1.00001 0.999706
0.998635 1 1.00004 0.99859
1.00278 1.00506 1 0.99773
1.01503 1.01766 1 0.997416
1.02878 1.03161 1 0.997258
1.01753 1.02031 1 0.997275
1.02218 1.02496 1 0.997291
1.02321 1.02596 1 0.997328
0.999804 1 1.00094 0.998866
1.00122 1 1.00277 0.998455
0.999896 1 1.00066 0.999237
1.0185 1.02137 1 0.997192
1.01893 1.02172 1 0.99727
1.03298 1.03588 1 0.997203
1.03009 1.03297 1 0.997211
1.02448 1.02726 1 0.997291
1.02919 1.03183 1 0.99744
0.998924 1 1.00018 0.998748
1.02481 1.0275 1 0.997385
0.998821 1.00081 1 0.998013
1.0093 1.01205 1 0.997284
1.02024 1.02314 1 0.997163
1.02086 1.02342 1 0.997502
0.999425 1 1 0.999425
0.99871 1 1.0003 0.99841
1.00227 1 1.00372 0.998555
0.999844 1 1.00158 0.99827
1.00363 1.00585 1 0.997789
0.999992 1 1 0.999992
0.999873 1 1 0.999873
0.999787 1 1.00054 0.999245
0.99998 1.00191 1 0.998073
1.01349 1.01623 1 0.997303
0.99884 1 1.00014 0.998704
0.99876 1.00062 1.00033 0.997811
1.00367 1.00603 1 0.997647
1.0049 1.00741 1 0.997513
0.999998 1 1 0.999998
0.999399 1 1.00044 0.998956
0.999719 1 1.0002 0.999523
1.00056 1 1.00191 0.998653
1.01713 1.01996 1 0.997227
1.0087 1.01126 1 0.997472
1.0225 1.02544 1 0.997135
0.998655 1.00011 1.00045 0.9981
1.01113 1.0137 1 0.997465
1.00563 1.00643 1.00173 0.997483
1.01466 1.01723 1 0.997465
1 1 1 1
0.999687 1 1 0.999687
0.998982 1 1.00057 0.998408
1.00023 1 1.00131 0.998921
0.999958 1 1.00159 0.998371
1.02611 1.02907 1 0.997127
1.01697 1.01975 1 0.997274
1.02109 1.02398 1 0.997176
1.00266 1.00295 1.00199 0.997722
1.01357 1.01622 1 0.997393
1.00949 1.01145 1.00086 0.997211
0.999806 1 1 0.999806
0.999402 1 1 0.999402
0.999841 1 1 0.999841
0.999829 1 1 0.999829
1 1 1 1
1 1 1 1
1 1 1 1
1 1 1 1
1 1 1 1
0.999977 1 1 0.999977
1 1 1 1
0.999926 1 1 0.999926
1 1 1 1
0.999991 1 1.00013 0.99986
1 1 1 1
1.00454 1.00682 1 0.997728
1.00413 1.00648 1 0.997671
1.02108 1.02394 1 0.997202
1.01992 1.02284 1 0.997145
1.00228 1.00471 1 0.997577
0.99901 1 1 0.99901
1.0015 1.00394 1 0.99757
1.01938 1.02233 1 0.997106
1.02096 1.02384 1 0.997184
1.03431 1.03728 0.99989 0.997239
1.01995 1.0228 1 0.997209
1.03214 1.03502 1 0.997215
1.01893 1.0219 1 0.997097
1.0336 1.03673 0.999756 0.997227
1.03406 1.03694 1 0.997228
1.03572 1.03917 0.99926 0.99742
1.02885 1.03176 1 0.997178
1.03304 1.03568 0.999964 0.99748
1.00138 1.00385 1 0.997548
1.00269 1.00486 1 0.997843
1.01902 1.02183 1 0.997246
1.0179 1.02066 1 0.997292
0.999695 1 1 0.999695
0.998592 1 1 0.998587
1.00349 1.00574 1 0.997765
1.01531 1.01794 1 0.997411
1.02902 1.03183 1 0.997275
1.02208 1.02485 1 0.997295
1.01678 1.01959 1 0.997243
1.02359 1.02634 1 0.997327
0.999474 1 1.00061 0.998869
1.00122 1 1.00277 0.998457
1.00016 1 1.00093 0.999234
1.01863 1.02153 1 0.997157
1.01908 1.02188 1 0.997268
1.03257 1.03544 1 0.997225
1.03028 1.03316 1 0.99721
0.998927 1 1.00018 0.998746
0.999785 1.00178 1 0.998006
1.00837 1.01103 1.00003 0.997334
1.02465 1.02744 1 0.997283
1.029 1.0316 1 0.99748
1.02039 1.02333 1 0.997129
1.02476 1.02744 1 0.997388
1.02072 1.02325 1 0.99753
0.998905 1 1.00049 0.998412
0.999855 1 1.00161 0.99825
0.999434 1 1.00001 0.99942
1.00203 1 1.00345 0.998584
1.03307 1.03599 1 0.997183
1.03244 1.0353 1 0.997231
1.03311 1.03655 0.999335 0.997338
1.03096 1.0341 0.999484 0.997479
1.02642 1.02904 1 0.997457
1.0279 1.03035 0.999975 0.997645
0.998274 1 1 0.998274
1.02142 1.02381 1 0.997667
1.00097 1.00336 1 0.997617
1.01226 1.01508 1.00018 0.997048
1.02152 1.02448 1 0.997106
1.02028 1.02277 1 0.997569
0.999557 1 1 0.999557
0.999965 1 1.00121 0.99876
0.998213 1 1 0.998213
1.00186 1 1.00354 0.998327
0.999084 1 1.00086 0.998225
0.999999 1 1 0.999999
1.01693 1.01976 1 0.997223
0.999531 1 1 0.999531
0.999705 1 1.00075 0.998957
1.00098 1 1.00234 0.998648
1.00833 1.01089 1 0.997472
1.02246 1.0254 1 0.997133
0.998611 1 1.00051 0.998106
1.00569 1.0063 1.00193 0.997472
1.01141 1.01397 1 0.997477
1.01504 1.01755 1 0.997533
1 1 1 1
0.999694 1 1 0.999694
0.998981 1 1.00057 0.99841
1.00041 1 1.00149 0.998921
1.00031 1 1.00196 0.99835
1.0263 1.02927 1 0.997122
1.01729 1.02007 1 0.997273
1.02098 1.02388 1 0.997166
1.00188 1.00203 1.00213 0.997728
1.01619 1.01884 1 0.9974
1.00889 1.01072 1.00096 0.997229
0.999768 1 1 0.999768
0.999318 1 1.00016 0.999161
0.998837 1.00027 1.00048 0.998094
1.00152 1 1.00295 0.998574
0.999707 1 1.00146 0.998249
1.02525 1.02809 1 0.997234
1.01673 1.01952 1 0.997259
1.01907 1.02177 1 0.997353
1.00193 1.00063 1.00379 0.997509
1.00793 1.01086 1 0.997104
0.999809 1 1 0.999809
0.999334 1 1 0.999334
0.99938 1 1 0.99938
0.999158 1 1 0.999158
0.999411 1 1 0.999411
0.999846 1 1 0.999846
0.999842 1 1 0.999842
1 1 1 1
0.999831 1 1 0.999831
1 1 1 1
1 1 1 1
1 1 1 1
1 1 1 1
1 1 1 1
0.999996 1 1 0.999996
0.999966 1 1 0.999966
1 1 1 1
1 1 1 1
0.999914 1 1 0.999914
1 1 1 1
1.01957 1.02243 1 0.997206
1.02074 1.02362 1 0.997183
1.03189 1.03477 1 0.997213
1.03434 1.03745 0.999747 0.997254
1.01917 1.02212 1 0.997107
1.00157 1.00401 1 0.997569
1.01874 1.0217 1 0.997097
1.03363 1.03673 0.999782 0.997221
1.03401 1.03689 1 0.997228
1.03516 1.03888 0.99897 0.997451
1.02942 1.03234 1 0.997172
1.03277 1.03563 0.999739 0.9975
1.03293 1.03601 0.999831 0.997195
1.03417 1.03846 0.99848 0.997387
1.03452 1.03777 0.999361 0.997508
1.03319 1.03853 0.997275 0.997578
1.02969 1.0324 1 0.997379
1.03237 1.03564 0.999151 0.997692
1.01867 1.02161 1 0.997123
1.01921 1.022 1 0.997266
1.03208 1.03493 1 0.997246
1.03041 1.0333 1 0.997209
0.998881 1 1.00014 0.998744
1.00073 1.00274 1 0.998
1.00754 1.01 1.00018 0.997385
1.02483 1.02763 1 0.997276
1.02871 1.03127 1 0.997521
1.02473 1.02741 1 0.997392
1.02058 1.02355 1 0.997096
1.02038 1.02288 1 0.997557
0.999071 1 1.00066 0.998414
0.999869 1 1.00164 0.998231
0.99952 1 1.0001 0.999415
1.00157 1 1.00296 0.998613
1.03293 1.03585 1 0.997184
1.03194 1.03483 1 0.997213
1.03297 1.03634 0.999376 0.997367
1.03118 1.03408 0.999742 0.997462
0.998352 1.00008 1 0.998268
1.0011 1.00341 1.00003 0.997663
1.0125 1.01511 1.00039 0.997039
1.02603 1.02868 1 0.997421
1.02739 1.02986 0.999908 0.9977
1.02035 1.02332 1 0.997093
1.02198 1.02437 1 0.997669
1.02132 1.02376 1 0.997616
0.99821 1 1 0.99821
0.998691 1 1.00046 0.998231
1.00258 1 1.00426 0.998321
0.999522 1 1 0.999522
0.999962 1 1.00118 0.998787
1.0332 1.03775 0.998239 0.997374
1.03315 1.03681 0.999046 0.997418
1.02872 1.03309 0.99808 0.997686
1.02427 1.02699 0.999633 0.997717
0.998497 1.00048 1 0.998022
1.02528 1.0275 1 0.997836
1.00099 1.00334 1.00029 0.997372
1.01135 1.01406 1.00051 0.996819
1.01888 1.02187 1 0.99708
0.999616 1 1 0.999616
0.999222 1 1.0002 0.999019
1.00084 1 1.00231 0.998529
0.998166 1 1 0.998166
1.00248 1 1.00435 0.998133
0.998156 1 1 0.998156
1 1 1 1
0.999702 1 1 0.999702
1.02652 1.02949 1 0.997116
1.00065 1 1.00173 0.998921
0.998828 1 1.00042 0.998412
1.00083 1 1.0025 0.998329
1.01746 1.02024 1 0.997272
1.02071 1.02362 1 0.997156
1.001 1.00098 1.00229 0.997733
1.00774 1.00974 1.00077 0.997248
1.01866 1.0213 1 0.997408
0.999773 1 1 0.999773
0.999269 1 1.0001 0.999165
0.998646 1.00014 1.00041 0.998097
1.0021 1 1.00354 0.99857
0.999772 1 1.00153 0.998246
1.02521 1.02806 1 0.997228
1.01712 1.01993 1 0.997249
1.01883 1.02151 1 0.997379
1.00176 1.00105 1.00324 0.997474
1.00674 1.00964 1.00006 0.997075
0.999306 1 1 0.999306
1.00075 1 1.00199 0.998762
1.00054 1.00059 1.002 0.99795
1.00186 1 1.00355 0.998313
0.999135 1 1.001 0.998142
1.02551 1.02791 1 0.997658
1.01477 1.01765 1 0.997168
1.01555 1.01819 1 0.997402
1.00373 1.00209 1.00433 0.997307
1.00126 1.00439 1 0.996885
0.999812 1 1 0.999812
0.999352 1 1 0.999352
0.999073 1 1 0.999073
0.999358 1 1 0.999358
0.999411 1 1 0.999411
0.999127 1 1 0.999127
0.998985 1 1 0.998985
0.999093 1 1 0.999093
0.999415 1 1 0.999415
0.999842 1 1 0.999842
0.999846 1 1 0.999846
1 1 1 1
0.999844 1 1 0.999844
1 1 1 1
1 1 1 1
1 1 1 1
1 1 1 1
1 1 1 1
1 1 1 1
0.999992 1 1 0.999992
1 1 1 1
0.999956 1 1 0.999956
1 1 1 1
1 1 1 1
1.02994 1.03287 1 0.997166
1.03376 1.03663 1 0.997227
1.0325 1.03558 0.999503 0.997521
1.03458 1.03854 0.998702 0.997481
1.03369 1.03677 0.99982 0.997215
1.01864 1.02161 1 0.997098
1.0333 1.03633 0.999905 0.997176
1.0344 1.03849 0.998684 0.997379
1.03458 1.03764 0.999561 0.997489
1.03253 1.03816 0.996976 0.997592
1.02903 1.03174 1 0.997378
1.03137 1.03486 0.998895 0.997734
1.03388 1.03785 0.998821 0.997359
1.03341 1.03972 0.996353 0.99757
1.03292 1.03862 0.996808 0.997692
1.0295 1.03279 0.999031 0.99778
1.03287 1.03579 1 0.997184
1.03148 1.03438 1 0.997194
1.03286 1.03616 0.999419 0.997394
1.03149 1.03415 0.999978 0.997444
0.998466 1.00021 1 0.998261
1.00098 1.00328 1 0.997709
1.01272 1.01515 1.00058 0.99703
1.02556 1.02824 1 0.997386
1.02694 1.02941 0.999847 0.997755
1.02271 1.0251 1 0.997672
1.01938 1.02237 1 0.997079
1.02256 1.02495 1 0.997664
0.998257 1.00005 1 0.998208
0.998241 1 1.00001 0.998236
1.00399 1 1.00569 0.998314
0.999487 1 1 0.999487
1.00001 1 1.00119 0.998815
1.03372 1.03795 0.998546 0.997377
1.03321 1.03694 0.998989 0.997418
1.02866 1.03261 0.998497 0.997675
0.999056 1.00104 1 0.998015
1.00206 1.0044 1.00026 0.997417
1.01103 1.01349 1.00076 0.996808
1.02491 1.02764 0.999642 0.997705
1.01905 1.02195 1 0.997162
1.02333 1.02567 0.999906 0.997812
0.999632 1 1 0.999632
0.998461 1.0003 1 0.998156
0.998246 1 1 0.998246
1.00256 1 1.00445 0.998117
1.00088 1 1.00234 0.998543
0.999175 1 1.00018 0.99899
1.03241 1.03895 0.996239 0.99746
1.03108 1.03876 0.994998 0.997601
1.02393 1.03077 0.995582 0.997773
1.02798 1.03215 0.998039 0.997916
0.999459 1.0016 1 0.997859
1.01927 1.02184 1 0.997484
1.00279 1.00422 1.00165 0.996944
1.00643 1.00874 1.00104 0.996667
0.999752 1 1 0.999752
0.999196 1 1 0.999196
0.999239 1 1.00053 0.998714
1.00278 1 1.00457 0.998221
0.998304 1.00026 1 0.998048
1.00178 1 1.0038 0.997989
0.999777 1 1 0.999777
0.999168 1 1 0.999168
1.02536 1.02821 1 0.997221
1.00228 1 1.00372 0.998566
0.998369 1 1.00027 0.9981
0.99972 1 1.00148 0.998242
1.0178 1.02062 1 0.997239
1.01883 1.02148 1 0.997404
1.0018 1.00164 1.00273 0.997438
1.00563 1.00834 1.00027 0.997046
0.999309 1 1 0.999309
1.00054 1 1.00177 0.998767
1.00026 1.00032 1.00198 0.997964
1.00199 1 1.00368 0.998318
0.998693 1 1.00048 0.998218
1.02594 1.0284 0.999915 0.997695
1.0141 1.01697 1 0.997175
1.01691 1.01948 1 0.997476
1.00312 1.00128 1.00458 0.997271
1.00185 1.005 1.00003 0.996833
0.998994 1 1 0.998994
1.00158 1 1.00316 0.998422
1.00224 1.00066 1.00378 0.9978
0.999569 1 1.00155 0.998019
1.02805 1.03779 0.992684 0.997923
1.02 1.02242 0.999872 0.997766
1.00827 1.01135 1 0.996959
1.00349 1.00234 1.00426 0.996905
0.99937 1 1 0.99937
0.999086 1 1 0.999086
0.998952 1 1 0.998952
0.99941 1 1 0.99941
0.999096 1 1 0.999096
0.999414 1 1 0.999414
0.99897 1 1 0.99897
0.999106 1 1 0.999106
0.998892 1 1 0.998892
0.998922 1 1 0.998922
0.99907 1 1 0.99907
0.999401 1 1 0.999401
0.999833 1 1 0.999833
0.999841 1 1 0.999841
1 1 1 1
0.999846 1 1 0.999846
1 1 1 1
1 1 1 1
1 1 1 1
1 1 1 1
1 1 1 1
1 1 1 1
1 1 1 1
1 1 1 1
0.999988 1 1 0.999988
1 1 1 1
1 1 1 1
1.02827 1.03097 1 0.997378
1.03473 1.0376 0.99977 0.997469
1.03039 1.03408 0.998648 0.997775
1.03189 1.03781 0.996681 0.997606
1.03462 1.03851 0.998882 0.997371
1.03367 1.03662 1 0.997157
1.03356 1.03778 0.998566 0.99736
1.03288 1.03907 0.996475 0.997561
1.03233 1.0381 0.996738 0.997691
1.03119 1.03435 0.999156 0.997785
1.033 1.03935 0.996366 0.997513
1.03349 1.04304 0.993094 0.997736
1.03402 1.04097 0.995486 0.997827
1.03422 1.03813 0.99885 0.997379
1.03327 1.03704 0.998947 0.997417
1.02859 1.03206 0.998973 0.997664
0.999737 1.00173 1 0.998008
1.00318 1.00555 1.00018 0.997461
1.01036 1.01275 1.00085 0.996797
1.02551 1.02825 0.999643 0.997694
1.02129 1.02373 0.999832 0.997787
1.01923 1.02205 1 0.997243
0.998828 1.00068 1 0.998147
0.998337 1 1 0.998337
1.0025 1 1.0044 0.998102
0.999649 1 1 0.999649
1.00035 1 1.00179 0.998556
0.999093 1 1.00013 0.998962
1.03314 1.03923 0.996661 0.997467
1.03118 1.03892 0.994923 0.997609
1.02431 1.0305 0.996217 0.997765
0.999783 1.00194 1 0.997847
1.00227 1.00386 1.0014 0.997029
1.00591 1.00832 1.0009 0.996715
1.02798 1.03188 0.998296 0.997924
1.01954 1.02221 0.999916 0.99747
0.999795 1 1 0.999795
0.999196 1 1 0.999196
0.998258 1.00017 1 0.998086
1.00306 1.00001 1.00498 0.998079
1.00278 1 1.00454 0.998246
0.999143 1 1.00045 0.998691
1.03206 1.04133 0.993434 0.997655
1.02364 1.03622 0.9901 0.997737
1.02323 1.03145 0.994058 0.997963
1.02052 1.02525 0.997435 0.997946
1.0006 1.00215 1.00088 0.997571
1.00549 1.00727 1.0014 0.996841
1.00296 1.00359 1.00264 0.996745
0.999895 1 1 0.999895
0.999509 1 1 0.999509
0.9993 1 1 0.9993
0.998828 1 1 0.998828
1.00002 1 1.00159 0.998427
1.00371 1 1.0056 0.998117
0.99812 1 1 0.99812
1.01877 1 1.02056 0.998244
0.999311 1 1 0.999311
1.00054 1 1.00177 0.998772
1.02629 1.02879 0.999833 0.997732
1.00245 1 1.00413 0.998323
1.00013 1 1.00215 0.997978
0.998328 1 1.00004 0.998293
1.01313 1.016 1 0.997183
1.01808 1.02058 1 0.997549
1.00266 1.00062 1.00482 0.997235
1.00257 1.00581 1 0.996782
0.998984 1 1.00001 0.998972
1.0017 1 1.00327 0.998437
1.00245 1.00048 1.00415 0.997827
0.999411 1 1.00136 0.99805
1.02943 1.03867 0.99316 0.997938
1.01984 1.02222 0.999949 0.997725
1.00932 1.01236 1 0.996999
1.00384 1.00321 1.00377 0.99686
0.999261 1 1.00048 0.998779
1.02685 1.04109 0.988367 0.997939
1.00111 1 1.00295 0.998161
1.0014 1.00118 1.00268 0.99755
1.02733 1.03153 0.997892 0.998026
1.00957 1.01252 1 0.997093
1.00489 1.00496 1.00323 0.996708
0.999099 1 1 0.999099
0.998948 1 1 0.998948
0.99887 1 1 0.99887