# vtk DataFile Version 2.0
Wound Healing Simulation
ASCII
DATASET UNSTRUCTURED_GRID
POINTS 3012 float
69.9759 18.75 4
67.2507 60.3285 4
69.976 18.75 2
73.0099 25.446 4
71.1327 20.9142 4
68.6801 16.6661 4
67.8215 19.9261 3.97367
67.2507 60.3286 2
71.1327 54.0858 4
68.6801 58.3339 4
65.6939 62.2254 4
65.3082 58.9988 3.97239
74.6784 42.3946 4
73.7221 47.2057 4
69.9759 18.75 0
73.0099 25.446 2
68.6801 16.6661 2
71.1327 20.9142 2
67.8221 19.9299 2
74.6792 32.6053 4
73.7222 27.7943 4
72.1454 23.1494 4
70.6114 26.2216 3.97363
68.8819 21.9577 3.97392
67.2507 14.6715 4
66.6328 17.9731 3.97252
65.7595 21.0381 3.96247
67.2507 60.3285 0
71.1327 54.0858 2
68.6801 58.3339 2
65.694 62.2255 2
65.3096 58.9943 2
72.1454 51.8506 4
69.9759 56.25 4
68.8323 53.1143 3.97372
64.0165 64.0165 4
66.6065 57.1329 3.97355
63.8814 60.762 3.97
63.4876 57.7621 3.96243
60.3285 67.2507 4
74.6792 42.3947 2
73.7222 47.2057 2
74.9194 39.9526 4
74.2788 44.8158 4
72.1659 42.0857 3.97506
73.0099 49.554 4
71.2466 46.5985 3.9736
73.0099 25.446 0
71.1327 20.9142 0
68.6801 16.6661 0
67.8215 19.9261 0.0263258
74.6792 32.6053 2
73.7222 27.7943 2
67.2508 14.6715 2
72.1455 23.1494 2
70.6107 26.2224 2
66.634 17.9775 2
68.8821 21.9604 2
65.7575 21.0401 2
74.9197 35.0474 4
74.2794 30.1841 4
72.1828 32.9448 3.97558
71.2758 28.4326 3.97375
69.8122 24.0596 3.97372
68.3277 26.9587 3.96407
66.7293 22.9441 3.96302
65.694 12.7746 4
65.3192 16.1064 3.97129
64.6779 19.2093 3.9617
63.749 22.0891 3.96425
71.1327 54.0858 0
65.6939 62.2254 0
68.6801 58.3339 0
65.3082 58.9988 0.0276093
72.1455 51.8506 2
69.9759 56.25 2
68.8326 53.1112 2
64.0165 64.0165 2
66.6077 57.1283 2
63.8824 60.7572 2
63.4806 57.7604 2
62.2254 65.694 4
58.891 65.4123 3.98089
69.7652 50.9901 3.97339
67.7795 55.1678 3.97383
66.6082 52.1994 3.96307
62.3319 62.4243 3.97513
64.6316 56.0218 3.96276
62.1928 59.3886 3.96331
61.7259 56.6351 3.96063
58.3339 68.6801 4
60.3285 67.2508 2
73.7221 47.2057 0
74.6784 42.3946 0
74.9197 39.9526 2
74.2794 44.8159 2
72.1651 42.0855 2
73.0099 49.554 2
71.2458 46.5976 2
75 37.5 4
72.4034 39.8027 3.97629
71.78 44.353 3.97449
69.7974 41.7892 3.96603
70.5719 48.8144 3.97336
68.8944 46.0111 3.96542
74.6792 32.6053 0
73.7222 27.7943 0
67.2507 14.6715 0
72.1454 23.1494 0
70.6114 26.2216 0.0263652
68.8819 21.9577 0.0260805
66.6328 17.9731 0.0274765
65.7595 21.0381 0.0375272
74.9197 35.0474 2
74.2794 30.1841 2
72.1819 32.9447 2
71.2749 28.4329 2
65.694 12.7745 2
65.3203 16.1111 2
69.8119 24.0613 2
68.3313 26.9594 2
64.672 19.2117 2
66.7299 22.9457 2
63.7477 22.09 2
72.4113 35.2253 3.97641
71.8016 30.6779 3.97478
69.834 33.2724 3.96621
68.9556 29.0438 3.9648
67.5841 24.9211 3.96347
66.0428 27.6756 3.96998
64.0165 10.9835 4
64.6114 23.8805 3.96644
63.8847 14.332 3.96851
63.4937 17.4613 3.96046
62.7738 20.3783 3.96214
61.8437 23.04 3.96971
60.6803 11.1025 3.9759
57.6047 11.4789 3.96765
72.1454 51.8506 0
69.9759 56.25 0
68.8323 53.1143 0.0262764
64.0165 64.0165 0
63.8814 60.762 0.0299999
66.6065 57.1329 0.0264539
63.4876 57.7621 0.037572
62.2255 65.694 2
58.8933 65.4075 2
69.765 50.988 2
67.7802 55.1638 2
66.6085 52.1979 2
62.3339 62.4186 2
64.6248 56.0196 2
62.1892 59.3886 2
61.7223 56.6349 2
60.6652 63.9728 3.97787
57.0214 66.7329 3.98329
57.5503 63.6676 3.9719
67.4691 50.1681 3.96368
65.6647 54.1635 3.96271
64.3698 51.3353 3.9664
60.7665 60.9151 3.96681
62.6953 55.0198 3.96335
60.585 58.1132 3.95844
60.1519 55.7058 3.96525
56.25 69.9759 4
58.3339 68.6801 2
60.3285 67.2507 0
58.9176 9.65997 3.97802
62.2254 9.30607 4
73.0099 49.554 0
74.2788 44.8158 0
71.2466 46.5985 0.0264035
72.1659 42.0857 0.0249423
74.9194 39.9526 0
75 37.5 2
72.4031 39.8025 2
71.7795 44.3524 2
69.7966 41.789 2
70.5714 48.8131 2
68.8985 46.0107 2
72.4868 37.5129 3.97597
70.0352 39.658 3.96665
69.4223 43.9059 3.96595
67.4727 41.4856 3.97484
68.2349 48.1007 3.96445
66.5472 45.409 3.97271
74.9197 35.0474 0
74.2794 30.1841 0
72.1828 32.9448 0.0244237
71.2758 28.4326 0.0262506
65.694 12.7746 0
65.3192 16.1064 0.0287092
69.8122 24.0596 0.0262766
68.3277 26.9587 0.0359343
66.7293 22.9441 0.0369834
64.6779 19.2093 0.0383024
63.749 22.0891 0.0357521
72.411 35.2251 2
71.8012 30.6779 2
69.8332 33.2729 2
68.9585 29.0443 2
64.0165 10.9835 2
63.8862 14.3376 2
63.4882 17.4629 2
67.5863 24.9223 2
66.0404 27.6768 2
62.7738 20.3784 2
64.6092 23.8817 2
61.842 23.0406 2
60.6827 11.1076 2
57.6045 11.4717 2
70.0521 35.395 3.96682
69.4604 31.1542 3.96526
67.5381 33.6072 3.97427
66.6307 29.6557 3.972
65.3733 25.7457 3.96826
63.8536 28.3324 3.97601
62.337 12.6594 3.97396
62.5891 24.7288 3.97237
62.1865 15.8043 3.96318
61.6955 18.7453 3.95957
60.9805 21.4446 3.96598
60.0738 23.8645 3.97328
59.2378 12.814 3.96336
55.8675 10.2649 3.97356
56.3921 13.1788 3.96687
69.7652 50.9901 0.0266067
62.2254 65.694 0
58.891 65.4123 0.0191145
67.7795 55.1678 0.0261689
66.6082 52.1994 0.0369252
62.3319 62.4243 0.0248703
62.1928 59.3886 0.036689
64.6316 56.0218 0.0372448
61.7259 56.6351 0.0393699
60.6676 63.9695 2
57.0245 66.7292 2
57.5511 63.6716 2
67.4706 50.167 2
65.6623 54.1616 2
64.3682 51.3345 2
60.7636 60.916 2
62.6952 55.02 2
60.5825 58.114 2
60.1506 55.7057 2
55.0675 67.9302 3.98576
59.2121 62.3325 3.96698
55.7975 64.8893 3.97285
56.315 62.0387 3.97574
65.1543 49.3615 3.96843
63.5536 53.2417 3.96479
62.1342 50.5611 3.97109
59.2968 59.5144 3.95924
60.8528 54.2236 3.96791
59.1181 56.9259 3.9606
58.9992 55.0795 3.96837
48.0993 68.5722 3.98195
50.9452 69.9306 3.98828
54.0858 71.1327 4
56.25 69.976 2
58.3339 68.6801 0
57.0548 8.33919 3.97937
60.3285 7.74928 4
58.9206 9.6644 2
62.2255 9.30602 2
70.5719 48.8144 0.0266429
71.78 44.353 0.0255118
68.8944 46.0111 0.0345789
69.7974 41.7892 0.0339694
72.4034 39.8027 0.0237092
75 37.5 0
72.486 37.5126 2
70.0349 39.658 2
69.4229 43.9055 2
67.4697 41.4851 2
68.2371 48.0998 2
66.5443 45.4079 2
70.1233 37.5234 3.96684
67.7178 39.5082 3.97475
67.0815 43.449 3.9744
65.2657 41.184 3.97653
65.8926 47.3779 3.97059
64.3302 44.7861 3.97615
72.4113 35.2253 0.0235897
71.8016 30.6779 0.02522
69.834 33.2724 0.0337932
68.9556 29.0438 0.0351986
64.0165 10.9835 0
63.8847 14.332 0.0314882
63.4937 17.4613 0.0395393
67.5841 24.9211 0.036529
66.0428 27.6756 0.030021
64.6114 23.8805 0.0335607
62.7738 20.3783 0.0378589
61.8437 23.04 0.0302933
60.6803 11.1025 0.0240987
57.6047 11.4789 0.0323542
70.0518 35.3953 2
69.4602 31.1546 2
67.5359 33.6078 2
66.6293 29.6565 2
62.3392 12.6649 2
62.1841 15.805 2
61.6948 18.7452 2
65.3709 25.747 2
63.8507 28.3336 2
60.9801 21.4445 2
62.5869 24.7296 2
60.0732 23.8654 2
59.2369 12.8136 2
56.392 13.1757 2
55.8687 10.2668 2
67.7573 35.5569 3.97443
67.1425 31.6465 3.97385
65.4251 33.9579 3.97639
64.3655 30.2581 3.97587
63.2582 26.4991 3.97471
61.8402 28.8873 3.97566
60.7663 14.2501 3.96444
60.6648 25.4712 3.97491
60.5379 17.1841 3.95778
59.991 19.9269 3.96199
59.3197 22.4034 3.9688
58.5439 24.4936 3.97413
54.032 9.15746 3.97064
57.8893 14.3876 3.96105
54.7748 12.0737 3.97089
55.2829 14.7311 3.95959
67.4691 50.1681 0.0363238
57.0214 66.7329 0.0167141
60.6652 63.9728 0.0221276
57.5503 63.6676 0.0280952
65.6647 54.1635 0.0372888
64.3698 51.3353 0.0335969
60.7665 60.9151 0.03319
60.585 58.1132 0.0415569
62.6953 55.0198 0.036648
60.1519 55.7058 0.0347491
55.0708 67.9275 2
59.2112 62.3362 2
55.799 64.8888 2
56.3132 62.0389 2
65.1521 49.3605 2
63.5529 53.2414 2
62.1331 50.5605 2
59.3046 59.5204 2
60.8536 54.2238 2
59.1261 56.9281 2
59.0056 55.0808 2
53.0394 68.9987 3.98685
53.9622 66.0018 3.97479
57.8608 60.8256 3.96574
54.6673 63.1564 3.96935
55.1881 60.5582 3.97509
62.8714 48.5765 3.97359
61.4726 52.4851 3.96944
59.8379 49.8883 3.97296
57.905 58.1889 3.95911
59.0299 53.833 3.97046
57.8443 55.6914 3.96296
50.1053 67.8484 3.97985
47.4592 66.5664 3.97621
46.0534 69.1519 3.98394
48.1008 68.5714 2
48.7994 70.7224 3.98942
50.9479 69.9296 2
51.8506 72.1454 4
54.0858 71.1327 2
56.25 69.9759 0
55.0995 7.14348 3.98356
58.3339 6.31992 4
57.0581 8.34419 2
60.3286 7.74926 2
58.9176 9.65997 0.0219767
62.2254 9.30607 0
68.2349 48.1007 0.0355461
69.4223 43.9059 0.0340488
66.5472 45.409 0.0272943
67.4727 41.4856 0.0251621
70.0352 39.658 0.0333536
72.4868 37.5129 0.0240319
70.1226 37.5235 2
67.7145 39.508 2
67.0803 43.4482 2
65.2631 41.1837 2
65.8902 47.3768 2
64.3279 44.7852 2
67.8189 37.5248 3.97456
65.5073 39.3595 3.97661
64.8736 42.9801 3.97618
63.3446 40.8925 3.97666
63.6349 46.6415 3.97542
62.3534 44.1343 3.97588
70.0521 35.395 0.0331786
69.4604 31.1542 0.0347367
67.5381 33.6072 0.0257311
66.6307 29.6557 0.028001
62.337 12.6594 0.0260355
62.1865 15.8043 0.0368151
61.6955 18.7453 0.0404332
65.3733 25.7457 0.0317384
63.8536 28.3324 0.0239889
62.5891 24.7288 0.0276324
60.9805 21.4446 0.0340216
60.0738 23.8645 0.0267204
59.2378 12.814 0.0366389
56.3921 13.1788 0.0331332
55.8675 10.2649 0.0264391
67.7546 35.5573 2
67.1412 31.6472 2
65.4214 33.9583 2
64.3632 30.259 2
60.7647 14.2504 2
60.5289 17.1854 2
59.9886 19.9268 2
63.2562 26.5001 2
61.8386 28.8875 2
59.3229 22.4034 2
60.6635 25.4724 2
58.5411 24.4962 2
57.8889 14.3875 2
55.2826 14.7275 2
54.0347 9.15465 2
54.7726 12.0752 2
65.6062 35.6842 3.97638
64.8936 32.201 3.97576
63.9193 34.287 3.97629
62.1591 30.7218 3.97569
61.2488 27.1964 3.97531
60.3437 29.2701 3.97582
59.2673 15.7238 3.95751
58.8534 25.9719 3.97552
58.9514 18.4596 3.95919
58.4182 21.0051 3.96349
57.8664 23.2723 3.97016
57.4933 24.8617 3.97554
52.1086 8.16501 3.97343
53.044 11.0743 3.9676
56.626 15.826 3.95725
53.7914 13.7583 3.97657
54.3126 16.1051 3.96004
55.0675 67.9302 0.014242
65.1543 49.3615 0.0315663
55.7975 64.8893 0.02715
59.2121 62.3325 0.0330233
56.315 62.0387 0.0242624
63.5536 53.2417 0.0352136
62.1342 50.5611 0.0289096
59.2968 59.5144 0.0407571
59.1181 56.9259 0.0394015
60.8528 54.2236 0.032088
58.9992 55.0795 0.0316314
53.0425 68.9968 2
53.9639 66.0003 2
57.8617 60.8279 2
54.6666 63.1578 2
55.1856 60.5579 2
62.8699 48.5757 2
61.4726 52.4849 2
59.8392 49.888 2
57.9079 58.1913 2
59.0349 53.8337 2
57.8409 55.6901 2
52.0661 66.9898 3.97785
52.9422 64.1874 3.974
56.5989 59.43 3.96045
[...]
POINT_DATA 3012
SCALARS Jp_lamdaP float 4
LOOKUP_TABLE default
0.999556 1 1 0.999556
1 1 1 1
0.999569 1 1 0.999569
0.999499 1 1 0.999499
0.999558 1 1 0.999558
0.999531 1 1 0.999531
1.00465 1.00608 1 0.998578
1 1 1 1
1 1 1 1
1 1 1 1
0.999624 1 1 0.999624
1.00093 1.0023 1 0.998639
0.99952 1 1 0.99952
0.999514 1 1 0.999514
0.999574 1 1 0.999574
0.999531 1 1 0.999531
0.999539 1 1 0.999539
0.99958 1 1 0.99958
1.0047 1.00613 1 0.998578
1 1 1 1
0.999484 1 1 0.999484
0.999533 1 1 0.999533
1.00092 1.00245 1 0.998467
1.00384 1.00528 1 0.998563
0.999524 1 1 0.999524
1.00375 1.00518 1 0.998579
1.02629 1.02926 1 0.997113
1 1 1 1
0.999774 1 1 0.999774
0.999786 1 1 0.999786
1 1 1 1
1.00024 1.00159 1 0.998649
0.999538 1 1 0.999538
0.999568 1 1 0.999568
1.00509 1.00634 1 0.998761
1 1 1 1
1.00363 1.0048 1 0.998834
0.999032 1.0003 1 0.998732
1.01584 1.01883 1 0.997069
1 1 1 1
1 1 1 1
0.999759 1 1 0.999759
1 1 1 1
0.999529 1 1 0.999529
0.998399 1 1 0.998399
1 1 1 1
0.999997 1.00133 1 0.998668
0.999559 1 1 0.999559
0.999596 1 1 0.999596
0.999541 1 1 0.999541
1.00476 1.00619 1 0.998582
0.999744 1 1 0.999744
0.999513 1 1 0.999513
0.999539 1 1 0.999539
0.999562 1 1 0.999562
1.00065 1.0022 1 0.998461
1.00387 1.0053 1 0.99858
1.00377 1.00522 1 0.998562
1.02643 1.02941 1 0.997101
1 1 1 1
0.999495 1 1 0.999495
0.99873 1 1 0.99873
0.999234 1.00079 1 0.998446
1.00256 1.00405 1 0.998517
1.02853 1.03174 1 0.996891
1.02689 1.02999 1 0.99699
0.999582 1 1 0.999582
0.999556 1.00089 1 0.998662
1.02406 1.02695 1 0.997183
1.04662 1.05058 1 0.99623
1 1 1 1
1 1 1 1
1 1 1 1
0.999733 1.00108 1 0.998658
1 1 1 1
1 1 1 1
1.00485 1.00634 1 0.998526
0.999855 1 1 0.999855
1.0026 1.00399 1 0.998619
0.999293 1.00032 1.00008 0.998889
1.01558 1.01857 1 0.997065
1 1 1 1
1.00182 1 1.00221 0.999602
1.00393 1.0055 1 0.998441
1.00472 1.00617 1 0.998556
1.03154 1.03499 1 0.996668
0.999682 1 1.00048 0.999203
1.02168 1.02479 1 0.996971
1.01107 1.01385 1.00002 0.99723
1.0318 1.03563 1 0.996305
1 1 1 1
1 1 1 1
1 1 1 1
1 1 1 1
1 1 1 1
0.999764 1 1 0.999764
0.998569 1.00001 1 0.998554
0.999758 1 1 0.999758
1.00065 1.00211 1 0.998546
1 1 1 1
0.99843 1 1 0.99843
0.998855 1.00018 1 0.998674
1.02255 1.02607 1 0.996568
1.00234 1.00365 1 0.998699
1.03101 1.03456 1 0.996568
0.999545 1 1 0.999545
0.99954 1 1 0.99954
0.999549 1 1 0.999549
0.999587 1 1 0.999587
1.00041 1.00196 1 0.998457
1.00371 1.00516 1 0.998564
1.00392 1.00534 1 0.998586
1.02661 1.02961 1 0.997089
1 1 1 1
0.999522 1 1 0.999522
0.998464 1 1 0.998464
0.99903 1.00059 1 0.998438
0.999794 1 1 0.999794
1.00028 1.00153 1 0.99875
1.00238 1.00388 1 0.998514
1.02858 1.03181 1 0.996864
1.02361 1.02652 1 0.997169
1.02746 1.03054 1 0.997011
1.04649 1.05044 1 0.996239
0.998454 1 1 0.998454
0.998536 1.00008 1 0.998457
1.02164 1.02487 1 0.996856
1.0262 1.02945 1 0.996837
1.02835 1.03154 1 0.996908
1.05934 1.06331 1 0.99627
1 1 1 1
1.05041 1.05437 1 0.996244
0.999296 1.00004 1.00043 0.998833
1.01547 1.0184 1 0.997127
1.04313 1.0471 1 0.996214
1.0513 1.05529 1 0.996213
1.00153 1 1.00229 0.999242
1.00646 1 1.00847 0.998
1 1 1 1
1 1 1 1
1.0048 1.00628 1 0.998531
1 1 1 1
0.999302 1.00015 1.00034 0.998815
1.00195 1.00333 1 0.998627
1.01514 1.01814 1 0.997061
1 1 1 1
1.00161 1 1.00199 0.999626
1.00439 1.00581 1 0.998586
1.00452 1.00584 1 0.998688
1.03085 1.0343 1 0.996667
0.999988 1 1.00089 0.999101
1.02172 1.02482 1 0.996973
1.00896 1.01169 1.00007 0.997228
1.03307 1.0369 1 0.996302
1.00123 1 1.00188 0.999354
1.0011 1 1.00132 0.999781
1.00483 1.0002 1.00631 0.998338
1.03349 1.03703 1 0.996582
1.02806 1.03134 1 0.996817
1.05408 1.05818 1 0.996128
1.0051 1.00671 1.00086 0.997541
1.04067 1.04451 1 0.996317
1.02233 1.02546 1.00057 0.996375
1.03997 1.04394 1 0.996194
1 1 1 1
1 1 1 1
1 1 1 1
1.00175 1 1.00233 0.99942
1 1 1 1
1 1 1 1
1 1 1 1
1.0011 1.00268 1 0.998428
0.998514 1.00008 1 0.998436
1 1 1 1
1 1 1 1
0.998431 1 1 0.998431
0.999026 1.00047 1 0.998554
1.02334 1.02686 1 0.996569
1.00264 1.00421 1 0.998434
1.03044 1.03399 1 0.996567
0.998432 1 1 0.998432
1.0211 1.02463 1 0.996546
1.02593 1.02944 1 0.996582
1.06324 1.06751 0.999692 0.996312
1.03353 1.03711 1 0.996556
1.06604 1.07003 1 0.996266
1 1 1 1
0.999549 1 1 0.999549
0.998169 1 1 0.998169
0.998846 1.00042 1 0.99843
1 1 1 1
1.0013 1.00246 1 0.998841
1.00221 1.0037 1 0.998514
1.02866 1.03193 1 0.996837
1.02816 1.03123 1 0.997031
1.02301 1.02593 1 0.997154
1.04632 1.05026 1 0.996248
0.998451 1 1 0.998451
0.998501 1.00005 1 0.998448
1.02158 1.02495 1 0.996716
1.02656 1.0298 1 0.99685
1 1 1 1
0.999661 1.00053 1.00022 0.998912
1.01688 1.01972 1 0.997219
1.02877 1.03197 1 0.996901
1.05943 1.06339 1 0.996275
1.04317 1.04714 1 0.996211
1.05057 1.05449 1 0.996277
1.05087 1.05485 1 0.996222
1.00136 1 1.00213 0.99923
1.00537 1.00005 1.00734 0.998002
1.02085 1.02436 1 0.996568
1.02263 1.02586 1 0.996856
1.06042 1.06433 0.999983 0.99634
1.0598 1.06458 0.999217 0.996292
1.0551 1.05899 1 0.996324
1.06086 1.06595 0.998739 0.996477
1.00045 1 1.00141 0.999038
1.0542 1.05805 1 0.996353
1.00846 1.01105 1.00011 0.997328
1.03766 1.04157 1 0.996245
1.04895 1.05307 1 0.996083
1.0506 1.0543 1 0.996494
1.00354 1.00102 1.00481 0.997722
1.0064 1 1.00808 0.998332
1.00458 1.00168 1.00563 0.997285
1.00456 1.0061 1 0.998475
1 1 1 1
1.00118 1 1.00153 0.99965
1.00402 1.00544 1 0.998592
1.03028 1.03373 1 0.996666
1.0002 1 1.0011 0.9991
1.00744 1.0102 1.00004 0.997225
1.02128 1.02438 1 0.996975
1.03463 1.03847 1 0.996299
1.00134 1 1.00197 0.999376
1.00069 1 1.00089 0.999799
1.00557 1 1.00725 0.998338
1.03263 1.03617 1 0.996579
1.02737 1.03065 1 0.996819
1.05421 1.05832 1 0.996122
1.00337 1.00521 1.00063 0.997545
1.04127 1.04512 1 0.996316
1.02484 1.02809 1.00047 0.996367
1.04126 1.04524 1 0.996199
1.00045 1 1.00056 0.999881
1.00345 1.00192 1.00362 0.997907
1.0049 1 1.00613 0.998779
1.00659 1.00215 1.0068 0.997653
1.05849 1.06259 1 0.996135
1.0481 1.05209 1 0.996211
1.05594 1.06 1 0.996164
1.01392 1.01675 1.00049 0.996728
1.04324 1.04711 1 0.996305
1.03708 1.03951 1.00158 0.996091
1.05004 1.05407 1 0.996168
0.999529 1 1 0.999529
0.99996 1 1 0.99996
1 1 1 1
1 1 1 1
1 1 1 1
1.00143 1 1.00183 0.999596
1 1 1 1
1.00195 1 1.00255 0.999404
1 1 1 1
1.00327 1.00484 1 0.998435
0.999282 1.00085 1 0.998435
1.03036 1.03391 1 0.996566
1.02406 1.02758 1 0.996569
0.998433 1 1 0.998432
1 1 1 1
0.998432 1 1 0.998432
1.02143 1.02497 1 0.996547
1.02675 1.03028 1 0.996581
1.06249 1.06668 0.999758 0.99631
1.03277 1.03635 1 0.996552
1.06545 1.06945 1 0.996264
1.02063 1.02417 1 0.996547
1.06091 1.06505 0.999821 0.996292
1.06607 1.07021 0.99983 0.996305
1.06436 1.07296 0.99531 0.996658
1.06313 1.06718 1 0.996199
1.06441 1.0711 0.997197 0.996546
0.99845 1 1 0.99845
0.99845 1.00001 1 0.99844
1.02153 1.02503 1 0.996578
1.02682 1.03005 1 0.996862
1 1 1 1
0.999776 1.00074 1.00004 0.998993
1.01796 1.02071 1 0.99731
1.02918 1.03239 1 0.996894
1.05945 1.06341 1 0.99628
1.05056 1.05445 1 0.996309
1.04347 1.04744 1 0.996208
1.05052 1.05449 1 0.996232
1.00133 1 1.00212 0.999217
1.00509 1.00032 1.00678 0.998003
1.02076 1.02428 1 0.996561
1.0228 1.02604 1 0.99685
1.05995 1.0642 0.999633 0.996368
1.06076 1.06515 0.999592 0.996283
1.00007 1 1.00105 0.999028
1.01004 1.01261 1.00014 0.997327
1.0371 1.04098 1 0.99627
1.05491 1.05883 1 0.9963
1.06014 1.06554 0.998396 0.996528
1.04866 1.05279 1 0.996075
1.05422 1.05807 1 0.996357
1.05066 1.05436 1 0.996487
1.00409 1.0018 1.00458 0.997721
1.00536 1.00214 1.00594 0.99728
1.00687 1 1.00855 0.998332
1.05968 1.06361 0.99998 0.99632
1.06092 1.06539 0.999426 0.996369
1.06413 1.07116 0.996842 0.996586
1.06158 1.06864 0.996839 0.996545
1.05634 1.06101 0.999111 0.996479
1.05245 1.06302 0.993205 0.996834
1.00245 1.00426 1.00067 0.997534
1.05188 1.05702 0.998462 0.996661
1.0245 1.02809 1 0.99651
1.04084 1.04513 1 0.995894
1.04638 1.05046 1 0.996119
1.04373 1.0479 0.999255 0.996766
1.00629 1 1.00766 0.998633
1.00323 1.00546 1.00067 0.997106
1.00857 1.00015 1.01098 0.997472
1.00476 1.00515 1.00266 0.996961
1.03183 1.03538 1 0.996575
1.00028 1 1.00046 0.999818
1.00158 1 1.00218 0.9994
1.0071 1 1.00878 0.998337
1.02681 1.03008 1 0.996821
1.05426 1.05837 1 0.996116
1.00095 1.00297 1.00043 0.997551
1.02584 1.02925 1.00033 0.996358
1.04223 1.04609 1 0.996316
1.04121 1.04517 1 0.996204
1.0001 1 1.00021 0.999894
1.00353 1.00118 1.00444 0.997911
1.00501 1 1.00623 0.998787
1.00615 1.00149 1.00703 0.997648
1.05856 1.06267 1 0.996128
1.04831 1.0523 1 0.996208
1.05542 1.05948 1 0.996161
1.01162 1.01448 1.00045 0.996734
1.04282 1.0467 1 0.996294
1.03492 1.0372 1.00173 0.996078
1.04945 1.05339 1 0.996257
0.999935 1 1 0.999935
1.00248 1 1.00336 0.999118
1.00663 1.00749 1.00191 0.997232
1.00855 1.00071 1.00981 0.998034
1.00429 1.00368 1.00322 0.9974
1.06089 1.06493 0.999941 0.996261
1.04911 1.05311 1 0.996197
1.05044 1.05431 0.999996 0.996335
1.01596 1.01766 1.00199 0.996339
1.04287 1.0467 1 0.996341
1.02962 1.03296 1.00086 0.995912
0.999458 1 1 0.999458
0.999851 1 1.00097 0.99888
0.99959 1 1 0.99959
0.999531 1 1 0.999531
0.999975 1 1 0.999975
0.999964 1 1 0.999964
1 1 1 1
1 1 1 1
1 1 1 1
1.00046 1 1.00069 0.999775
1 1 1 1
1.0017 1 1.00212 0.999579
1 1 1 1
1.00174 1 1.00235 0.999387
1 1 1 1
1.03189 1.03547 1 0.996549
1.02729 1.03082 1 0.99658
1.06447 1.06846 1 0.996261
1.06168 1.0658 0.999825 0.996309
1.02182 1.02536 1 0.996548
0.99843 1 1 0.99843
1.02072 1.02426 1 0.996547
1.06074 1.06485 0.999848 0.996292
1.06459 1.06869 0.999857 0.996304
1.06416 1.07324 0.994842 0.996675
1.06267 1.06673 1 0.996195
1.06487 1.07143 0.997321 0.996545
1.05973 1.06377 0.999922 0.996282
1.06396 1.07263 0.995217 0.996681
1.06409 1.07266 0.995367 0.996624
1.05826 1.06928 0.992784 0.996891
1.06268 1.06741 0.999147 0.996416
1.05718 1.07123 0.989966 0.99689
1.02068 1.02421 1 0.996553
1.02302 1.02626 1 0.996844
1.05954 1.0641 0.99931 0.996396
1.06185 1.06582 1 0.996274
0.99971 1 1.00069 0.999017
1.01239 1.01496 1.00014 0.997327
1.03756 1.04142 1 0.996296
1.05473 1.05867 1 0.996276
1.05942 1.06515 0.998031 0.996579
1.05425 1.0581 1 0.996361
1.04826 1.0524 1 0.996066
1.05082 1.05453 1 0.996479
1.00434 1.00253 1.00409 0.997721
1.00582 1.00226 1.00629 0.997275
1.00696 1 1.00864 0.998333
1.05966 1.0636 0.99998 0.996308
1.06077 1.06543 0.999253 0.996367
1.06354 1.07115 0.996253 0.996633
1.06148 1.06819 0.997194 0.99652
1.00466 1.00627 1.00087 0.997532
1.02453 1.02812 1 0.996508
1.03969 1.04391 1.00003 0.995926
1.05679 1.06119 0.999414 0.996436
1.05213 1.0634 0.992497 0.996882
1.0475 1.05162 1 0.996079
1.05211 1.05721 0.998512 0.996662
1.0449 1.04888 0.999399 0.996803
1.00467 1.00629 1.00129 0.997106
1.00465 1.00471 1.00304 0.996918
1.00582 1 1.0072 0.998631
1.00813 1.00003 1.01061 0.997512
1.06346 1.07105 0.996275 0.996632
1.06484 1.07234 0.996422 0.996569
1.05323 1.06476 0.992341 0.996807
1.0509 1.06531 0.989532 0.99691
1.05236 1.06039 0.995599 0.996809
1.05102 1.06474 0.990027 0.997058
1.0107 1.01391 1 0.996828
1.04402 1.05263 0.99477 0.997031
1.02706 1.03109 1 0.996091
1.03696 1.04122 1.00018 0.995734
1.04666 1.05073 1 0.996126
1.04724 1.05115 0.999445 0.996832
1.00189 1 1.00299 0.998904
1.01129 1.00015 1.01341 0.997762
1.00675 1.01003 1 0.996752
1.00675 1.00308 1.00652 0.99716
1.00738 1.00588 1.00474 0.996766
0.999908 1 1 0.999908
1.05859 1.06271 1 0.996122
1.00486 1 1.00608 0.998795
1.00369 1.00061 1.00517 0.997914
1.00544 1.00079 1.00703 0.997643
1.04846 1.05245 1 0.996205
1.05496 1.05903 1 0.996158
1.01128 1.01407 1.00051 0.99674
1.03502 1.0371 1.00193 0.996065
1.04248 1.04637 1 0.996284
1.04972 1.05357 1 0.996346
0.999942 1 1 0.999942
1.00227 1 1.00315 0.999129
1.00442 1.00586 1.00134 0.997239
1.00966 1.00058 1.01107 0.99803
1.00397 1.00298 1.00363 0.997361
1.06063 1.06466 0.999953 0.996256
1.04889 1.05289 1 0.996195
1.0503 1.05422 0.999955 0.996323
1.01717 1.01874 1.00213 0.996338
1.04595 1.0498 1 0.996327
1.02985 1.03305 1.00096 0.995943
1.00018 1 1.00084 0.999338
1.0053 1 1.00689 0.998422
1.00256 1.00524 1.00048 0.996862
1.0105 1.00284 1.00999 0.997676
1.00529 1.00599 1.00203 0.997282
1.05751 1.06289 0.99844 0.996493
1.04437 1.04825 1 0.996305
1.04884 1.05307 0.999433 0.996552
1.00574 1.00578 1.00379 0.996185
1.02695 1.03115 1 0.99592
0.999461 1 1 0.999461
0.998839 1 1.00005 0.998791
0.999953 1 1.0011 0.998854
0.99989 1 1.00129 0.998599
0.99979 1 1.00086 0.998931
0.999628 1 1 0.999628
0.999593 1 1 0.999593
0.999987 1 1 0.999987
0.999533 1 1 0.999533
0.999979 1 1 0.999979
1 1 1 1
0.999969 1 1 0.999969
1 1 1 1
1 1 1 1
0.999913 1 1 0.999913
1.00106 1 1.00131 0.999755
1 1 1 1
1 1 1 1
1.00223 1 1.00267 0.999562
1 1 1 1
1.06231 1.06637 1 0.99619
1.0635 1.06757 0.999883 0.996302
1.06546 1.07191 0.997426 0.996543
1.06405 1.07363 0.994361 0.996693
1.06048 1.06456 0.999875 0.996293
1.02076 1.0243 1 0.996547
1.05973 1.06376 0.999933 0.996283
1.06372 1.07228 0.995323 0.996676
1.06474 1.07333 0.995358 0.996625
1.05772 1.06928 0.992245 0.99692
1.0636 1.06825 0.999236 0.99641
1.05746 1.07133 0.990112 0.996912
1.06371 1.07183 0.995755 0.996652
1.0558 1.06813 0.991558 0.99687
1.05838 1.07067 0.991535 0.996958
1.05816 1.07342 0.988718 0.997041
1.05864 1.06876 0.993789 0.996724
1.0583 1.07542 0.986928 0.997113
1.05958 1.06355 0.999967 0.996295
1.06058 1.06543 0.999074 0.996366
1.06289 1.07109 0.99565 0.99668
1.06125 1.06763 0.997517 0.996494
1.00628 1.00767 1.00109 0.99753
1.02261 1.02619 1 0.996506
1.03789 1.04191 1.00018 0.995958
1.05727 1.06138 0.999738 0.996392
1.05186 1.06376 0.991855 0.996931
1.05229 1.05734 0.998555 0.996663
1.04843 1.0526 1 0.99604
1.04565 1.04945 0.999535 0.996841
1.00666 1.00763 1.00194 0.997106
1.0044 1.00463 1.0029 0.996875
1.0057 1 1.00709 0.998628
1.0076 1.00012 1.00995 0.997553
1.06352 1.0711 0.996279 0.996632
1.06445 1.07189 0.996498 0.99655
1.05335 1.06504 0.992165 0.996838
1.05188 1.06545 0.990344 0.996893
1.01134 1.0145 1.00007 0.99682
1.0256 1.02956 1.00003 0.996127
1.03688 1.04093 1.00039 0.995722
1.05296 1.06041 0.996205 0.996758
1.04962 1.06376 0.989565 0.997114
1.04356 1.04763 1 0.996112
1.04511 1.05382 0.994687 0.997031
1.04776 1.05172 0.999341 0.996897
1.00595 1.00923 1 0.996754
1.0057 1.00595 1.00301 0.996754
1.00691 1.0024 1.00737 0.997156
1.00262 1 1.00376 0.998872
1.01085 1.00007 1.013 0.997806
1.05455 1.06695 0.991493 0.996854
1.05462 1.06805 0.990528 0.996875
1.05026 1.06913 0.985209 0.997098
1.04526 1.06022 0.98873 0.997119
1.01347 1.01706 1 0.99647
1.04917 1.05828 0.994176 0.997204
1.01555 1.01948 1.00029 0.995858
1.03086 1.03494 1.00051 0.995559
1.04035 1.0444 1 0.996122
0.999947 1 1.00079 0.99916
1.00898 1 1.01082 0.998183
1.00754 1 1.01007 0.997489
1.00543 1.00839 1.00046 0.996611
1.00778 1.0042 1.00678 0.996803
1.00849 1.00683 1.00507 0.996596
0.99995 1 1 0.99995
1.00169 1 1.00256 0.999139
1.06034 1.06436 0.999969 0.99625
1.01089 1.00041 1.01247 0.998025
1.00144 1.00346 1.00074 0.997245
1.00368 1.00246 1.0039 0.997322
1.04856 1.05257 1 0.996193
1.05024 1.05422 0.999916 0.996312
1.01722 1.01863 1.00229 0.996338
1.02883 1.03219 1.00077 0.995974
1.04915 1.05303 1 0.996313
0.999751 1 1.00041 0.999344
1.00602 1 1.00761 0.998425
1.00492 1.00768 1.00041 0.996844
1.01075 1.00227 1.01081 0.997671
1.00566 1.00667 1.00174 0.997273
1.05668 1.06196 0.998533 0.996487
1.0458 1.04969 1 0.996292
1.04953 1.05374 0.999431 0.996576
1.00726 1.00788 1.00324 0.996152
1.02528 1.02945 1.00006 0.995889
1.00106 1 1.00236 0.998703
1.01049 1 1.01253 0.997987
1.00492 1.00624 1.002 0.996692
1.01149 1.00681 1.00726 0.997406
1.01651 1.01845 1.001 0.997098
1.04955 1.06127 0.991939 0.996985
1.04689 1.05091 1 0.996179
1.05023 1.05433 0.999563 0.99654
1.00861 1.00821 1.00433 0.996079
1.01285 1.01723 1 0.99569
0.999463 1 1 0.999463
0.998837 1 1.00003 0.998807
0.998658 1 1.00011 0.998553
0.99953 1 1.0007 0.998829
0.999463 1 1.00053 0.998929
1.00038 1 1.00181 0.998577
0.999408 1 1.00086 0.998548
1.00097 1 1.00246 0.998519
0.999107 1 1.00013 0.998975
0.999623 1 1 0.999623
0.999629 1 1 0.999629
0.999996 1 1 0.999996
0.999596 1 1 0.999596
0.99999 1 1 0.99999
1 1 1 1
0.999982 1 1 0.999982
1 1 1 1
1 1 1 1
0.999978 1 1 0.999978
0.999999 1 1.00011 0.999891
1 1 1 1
1.0014 1 1.00167 0.999734
1 1 1 1
1 1 1 1
1.06452 1.06908 0.999325 0.996404
1.06514 1.07372 0.995362 0.996626
1.0577 1.07138 0.990268 0.996934
1.05716 1.06922 0.991741 0.99695
1.06352 1.07195 0.995445 0.996671
1.05979 1.0638 0.999944 0.996284
1.06371 1.07161 0.995981 0.996633
1.05639 1.06831 0.991957 0.996863
1.05775 1.0701 0.991491 0.996943
1.05679 1.07281 0.987986 0.997051
1.05824 1.0681 0.994025 0.996726
1.05597 1.07387 0.986139 0.99715
1.05662 1.06807 0.992414 0.996844
1.05776 1.07448 0.987356 0.997041
1.05879 1.07596 0.986868 0.997133
1.05108 1.07131 0.983898 0.997169
1.06362 1.07119 0.996283 0.996631
1.06416 1.07153 0.99658 0.996532
1.05352 1.06536 0.991991 0.99687
1.05292 1.06569 0.991114 0.996876
1.01275 1.01592 1.00006 0.996813
1.0247 1.02864 1 0.996164
1.03682 1.04068 1.00058 0.995711
1.05344 1.06036 0.996764 0.996707
1.04819 1.0628 0.989053 0.99717
1.04617 1.05497 0.994612 0.997031
1.04112 1.0452 1 0.996097
1.049 1.05281 0.999411 0.996963
1.00336 1.00645 1.00017 0.996757
1.00507 1.0064 1.00195 0.996742
1.00752 1.00168 1.00871 0.997151
1.00298 1 1.00414 0.998841
1.01065 1 1.01283 0.99785
1.05471 1.06705 0.991549 0.996855
1.05516 1.06864 0.990486 0.996871
1.0505 1.06837 0.986142 0.99709
1.01356 1.01715 1 0.996467
1.01576 1.01969 1.00026 0.995895
1.02925 1.03307 1.00076 0.995547
1.04557 1.06013 0.989133 0.997105
1.04346 1.04747 0.999929 0.996241
1.04542 1.05483 0.993891 0.99717
1.00013 1 1.00093 0.999207
1.00553 1.00724 1.0017 0.996606
1.00813 1.00536 1.00606 0.996708
1.01054 1.00555 1.00819 0.996798
1.00896 1.00093 1.01053 0.997511
1.00915 1 1.01102 0.998149
1.0565 1.0726 0.988021 0.996928
1.05448 1.07618 0.982756 0.997033
1.04383 1.06687 0.981177 0.997176
1.04106 1.06205 0.982868 0.997315
1.00941 1.0129 1.00027 0.996287
1.04044 1.04657 0.997374 0.996766
1.0066 1.0095 1.00165 0.995484
1.01831 1.02194 1.00104 0.995406
0.999525 1 1 0.999525
1.00301 1 1.00445 0.998565
1.00841 1 1.01061 0.997827
1.00951 1.00172 1.0108 0.997
1.00609 1.00491 1.00471 0.996481
1.01263 1.00494 1.01127 0.996426
0.999491 1 1.00014 0.999349
1.00701 1 1.0086 0.998429
1.05597 1.06116 0.998626 0.996482
1.01082 1.00154 1.01163 0.997665
1.00723 1.01017 1.00027 0.996826
1.00511 1.00634 1.00152 0.997264
1.04734 1.05125 1 0.996279
1.05014 1.05433 0.999429 0.9966
1.00917 1.01035 1.00273 0.996118
1.02352 1.0275 1.00027 0.995858
1.001 1 1.0023 0.998707
1.01095 1 1.01301 0.997966
1.0053 1.00663 1.00198 0.9967
1.01127 1.00721 1.00664 0.997412
1.01798 1.0204 1.00048 0.997159
1.05177 1.06329 0.992112 0.997032
1.04629 1.05027 1 0.996212
1.05104 1.05514 0.999489 0.996618
1.00917 1.00855 1.00458 0.996045
1.0125 1.01694 1.00003 0.995609
1.00225 1 1.00387 0.998393
1.01138 1.00193 1.01186 0.997604
1.01199 1.01158 1.00378 0.996633
1.01512 1.01657 1.00161 0.996978
1.04908 1.08127 0.972872 0.997281
1.0482 1.05613 0.99544 0.997045
1.03275 1.03708 1 0.995821
1.01526 1.01536 1.00426 0.995669
0.998832 1 1.00001 0.998823
0.998719 1 1.00016 0.99856
0.998594 1 1 0.998594
0.99968 1 1.00075 0.998928
1.00128 1 1.00273 0.998554
0.999186 1 1.00021 0.998972
0.999264 1 1.0007 0.998567
1.00144 1 1.00291 0.998527
0.998684 1 1 0.998684
1.00142 1 1.00304 0.998393
1.00064 1 1.00215 0.998486
0.998953 1 1 0.998953
0.999585 1 1 0.999585
0.999621 1 1 0.999621
0.999999 1 1 0.999999
0.999629 1 1 0.999629
0.999997 1 1 0.999997
1 1 1 1
0.999993 1 1 0.999993
1 1 1 1
1 1 1 1
0.999997 1 1 0.999997
0.999965 1 1 0.999965
1 1 1 1
1.0003 1 1.00043 0.999869
1 1 1 1
1 1 1 1
1.05776 1.06737 0.994256 0.996728
1.05723 1.06965 0.99144 0.996928
1.05373 1.07239 0.985368 0.997187
1.05539 1.07222 0.987205 0.997062
1.05698 1.06852 0.992321 0.996856
1.06371 1.07139 0.996204 0.996614
1.05639 1.06795 0.992303 0.996844
1.05755 1.07413 0.987496 0.997032
1.05727 1.07512 0.986234 0.99713
1.05197 1.07202 0.984074 0.99718
1.05874 1.07442 0.988387 0.996987
1.05882 1.08094 0.982294 0.99719
1.05846 1.08315 0.979913 0.997241
1.05486 1.06715 0.991606 0.996857
1.05562 1.06913 0.990466 0.996867