# vtk DataFile Version 2.0
Wound Healing Simulation
ASCII
DATASET UNSTRUCTURED_GRID
POINTS 3012 float
69.9759 18.75 4
67.2507 60.3285 4
69.976 18.75 2
73.0099 25.446 4
71.1327 20.9142 4
68.6801 16.6661 4
67.8264 19.9141 3.99322
67.2507 60.3286 2
71.1327 54.0858 4
68.6801 58.3339 4
65.6939 62.2254 4
65.313 59.0108 3.99404
74.6784 42.3946 4
73.7221 47.2057 4
69.9759 18.75 0
73.0099 25.446 2
68.6801 16.6661 2
71.1327 20.9142 2
67.8264 19.9135 2
74.6792 32.6053 4
73.7222 27.7943 4
72.1454 23.1494 4
70.6165 26.211 3.99177
68.8871 21.9463 3.9928
67.2507 14.6715 4
66.6377 17.9604 3.99363
65.8042 21.0042 3.98908
67.2507 60.3285 0
71.1327 54.0858 2
68.6801 58.3339 2
65.694 62.2255 2
65.313 59.0113 2
72.1454 51.8506 4
69.9759 56.25 4
68.8379 53.1247 3.99255
64.0165 64.0165 4
66.6115 57.1445 3.99373
63.8865 60.7739 3.99434
63.5046 57.7934 3.99013
60.3285 67.2507 4
74.6792 42.3947 2
73.7222 47.2057 2
74.9194 39.9526 4
74.2788 44.8158 4
72.1715 42.0913 3.99035
73.0099 49.554 4
71.252 46.6073 3.99114
73.0099 25.446 0
71.1327 20.9142 0
68.6801 16.6661 0
67.8264 19.9141 0.00678031
74.6792 32.6053 2
73.7222 27.7943 2
67.2508 14.6715 2
72.1455 23.1494 2
70.6165 26.2106 2
66.6377 17.9599 2
68.8871 21.9458 2
65.8043 21.0037 2
74.9197 35.0474 4
74.2794 30.1841 4
72.1879 32.9379 3.99017
71.2808 28.4225 3.99118
69.8175 24.0487 3.99233
68.357 26.9369 3.98767
66.7709 22.9141 3.98861
65.694 12.7746 4
65.3242 16.0933 3.99396
64.7193 19.1722 3.98959
63.9013 22.0072 3.98712
71.1327 54.0858 0
65.6939 62.2254 0
68.6801 58.3339 0
65.313 59.0108 0.00596414
72.1455 51.8506 2
69.9759 56.25 2
68.8379 53.1252 2
64.0165 64.0165 2
66.6114 57.145 2
63.8864 60.7744 2
63.5045 57.7939 2
62.2254 65.694 4
58.8937 65.4191 3.99459
69.7709 51 3.99195
67.7848 55.1789 3.99324
66.6581 52.228 3.98824
62.3366 62.434 3.99452
64.6665 56.053 3.98971
62.2054 59.425 3.99058
61.832 56.7103 3.98785
58.3339 68.6801 4
60.3285 67.2508 2
73.7221 47.2057 0
74.6784 42.3946 0
74.9197 39.9526 2
74.2794 44.8159 2
72.1716 42.0915 2
73.0099 49.554 2
71.2521 46.6077 2
75 37.5 4
72.4091 39.8053 3.99048
71.7855 44.3606 3.99067
69.8158 41.7969 3.98691
70.5775 48.8239 3.99152
68.9232 46.0278 3.9874
74.6792 32.6053 0
73.7222 27.7943 0
67.2507 14.6715 0
72.1454 23.1494 0
70.6165 26.211 0.00823457
68.8871 21.9463 0.00719957
66.6377 17.9604 0.00637456
65.8042 21.0042 0.0109193
74.9197 35.0474 2
74.2794 30.1841 2
72.188 32.9377 2
71.2809 28.4221 2
65.694 12.7745 2
65.3242 16.0929 2
69.8175 24.0482 2
68.3571 26.9366 2
64.7193 19.1718 2
66.771 22.9137 2
63.9014 22.0068 2
72.4168 35.2212 3.99021
71.8068 30.6689 3.99065
69.8512 33.2619 3.98677
68.9768 29.0261 3.98726
67.6207 24.8951 3.98815
66.2135 27.6159 3.98615
64.0165 10.9835 4
64.7729 23.8046 3.98686
63.8905 14.3189 3.9942
63.5168 17.424 3.99009
62.9186 20.2903 3.98737
62.1143 22.9087 3.98629
60.6839 11.0916 3.99442
57.6122 11.433 3.99086
72.1454 51.8506 0
69.9759 56.25 0
68.8379 53.1247 0.00745075
64.0165 64.0165 0
63.8865 60.7739 0.00566317
66.6115 57.1445 0.0062658
63.5046 57.7934 0.00987296
62.2255 65.694 2
58.8936 65.4195 2
69.7709 51.0005 2
67.7848 55.1794 2
66.6581 52.2284 2
62.3365 62.4344 2
64.6665 56.0535 2
62.2053 59.4255 2
61.832 56.7107 2
60.6687 63.9827 3.99456
57.0242 66.7392 3.99463
57.5576 63.7039 3.99104
67.517 50.1937 3.98782
65.7093 54.1938 3.98898
64.5543 51.4105 3.98626
60.7742 60.9559 3.99092
62.8317 55.0966 3.98767
60.6645 58.1874 3.98809
60.3407 55.8208 3.98689
56.25 69.9759 4
58.3339 68.6801 2
60.3285 67.2507 0
58.9208 9.65047 3.99447
62.2254 9.30607 4
73.0099 49.554 0
74.2788 44.8158 0
71.252 46.6073 0.0088625
72.1715 42.0913 0.00964682
74.9194 39.9526 0
75 37.5 2
72.4091 39.8054 2
71.7856 44.3609 2
69.8159 41.797 2
70.5775 48.8243 2
68.9233 46.028 2
72.4924 37.5121 3.99009
70.0535 39.6612 3.98732
69.4417 43.9178 3.987
67.6188 41.5064 3.98587
68.2763 48.1223 3.98763
66.7301 45.4562 3.98596
74.9197 35.0474 0
74.2794 30.1841 0
72.1879 32.9379 0.00983121
71.2808 28.4225 0.00881969
65.694 12.7746 0
65.3242 16.0933 0.00603828
69.8175 24.0487 0.00767009
68.357 26.9369 0.0123299
66.7709 22.9141 0.0113893
64.7193 19.1722 0.0104086
63.9013 22.0072 0.0128766
72.4168 35.2211 2
71.8068 30.6686 2
69.8513 33.2618 2
68.9769 29.0259 2
64.0165 10.9835 2
63.8904 14.3184 2
63.5168 17.4236 2
67.6208 24.8947 2
66.2137 27.6156 2
62.9187 20.2899 2
64.773 23.8043 2
62.1144 22.9084 2
60.6838 11.0912 2
57.6121 11.4326 2
70.0697 35.3886 3.98699
69.4781 31.1401 3.98697
67.676 33.5831 3.9855
66.7919 29.6075 3.98576
65.5419 25.677 3.98655
64.1742 28.2324 3.9855
62.3419 12.6481 3.99434
62.8812 24.6058 3.98614
62.2006 15.7634 3.99046
61.8218 18.6545 3.98774
61.2352 21.3052 3.98635
60.4539 23.6875 3.98602
59.2464 12.7623 3.99079
55.8738 10.2212 3.99094
56.4061 13.0925 3.98851
69.7709 51 0.00804809
62.2254 65.694 0
58.8937 65.4191 0.00541049
67.7848 55.1789 0.00676269
66.6581 52.228 0.0117565
62.3366 62.434 0.00547916
62.2054 59.425 0.00941641
64.6665 56.053 0.0102909
61.832 56.7103 0.0121487
60.6686 63.9831 2
57.0241 66.7396 2
57.5575 63.7044 2
67.5171 50.1941 2
65.7093 54.1942 2
64.5544 51.4108 2
60.7742 60.9564 2
62.8317 55.097 2
60.6645 58.1878 2
60.3408 55.8211 2
55.0697 67.9356 3.99468
59.2197 62.3814 3.99099
55.8036 64.9196 3.99111
56.328 62.1075 3.98871
65.3501 49.4309 3.98604
63.7204 53.3198 3.98691
62.4665 50.6832 3.98536
59.3368 59.5816 3.98847
61.0933 54.3437 3.98674
59.2984 57.0463 3.98672
59.2574 55.2215 3.98671
48.1021 68.5839 3.99131
50.9477 69.9343 3.99474
54.0858 71.1327 4
56.25 69.976 2
58.3339 68.6801 0
57.0579 8.33093 3.99451
60.3285 7.74928 4
58.9208 9.65007 2
62.2255 9.30602 2
70.5775 48.8239 0.00847534
71.7855 44.3606 0.00933022
68.9232 46.0278 0.0126013
69.8158 41.7969 0.0130889
72.4091 39.8053 0.00951929
75 37.5 0
72.4924 37.5121 2
70.0536 39.6612 2
69.4418 43.918 2
67.6189 41.5065 2
68.2764 48.1226 2
66.7303 45.4564 2
70.1413 37.5217 3.98716
67.8568 39.5171 3.98636
67.2444 43.4826 3.98569
65.5873 41.2205 3.98555
66.0882 47.4376 3.98609
64.682 44.8683 3.98551
72.4168 35.2212 0.00979103
71.8068 30.6689 0.00935267
69.8512 33.2619 0.0132341
68.9768 29.0261 0.0127367
64.0165 10.9835 0
63.8905 14.3189 0.00580305
63.5168 17.424 0.00990684
67.6207 24.8951 0.0118489
66.2135 27.6159 0.0138475
64.7729 23.8046 0.0131442
62.9186 20.2903 0.0126269
62.1143 22.9087 0.0137056
60.6839 11.0916 0.00558185
57.6122 11.433 0.00914212
70.0699 35.3886 2
69.4782 31.14 2
67.6761 33.5831 2
66.7921 29.6074 2
62.3418 12.6477 2
62.2005 15.763 2
61.8219 18.6542 2
65.5421 25.6768 2
64.1744 28.2322 2
61.2353 21.305 2
62.8813 24.6056 2
60.4541 23.6873 2
59.2464 12.7618 2
56.4062 13.0921 2
55.8738 10.2208 2
67.892 35.5437 3.98579
67.2855 31.6108 3.98546
65.7275 33.9184 3.98524
64.692 30.1736 3.98491
63.5646 26.3866 3.98592
62.294 28.7508 3.9855
60.7758 14.2046 3.99069
61.0771 25.3012 3.98586
60.6172 17.0997 3.98811
60.2349 19.7804 3.98662
59.6845 22.2167 3.98584
59.0122 24.2758 3.98622
54.0368 9.12573 3.991
57.9116 14.3088 3.9885
54.7872 11.9942 3.98857
55.3142 14.6208 3.98719
67.517 50.1937 0.0121801
57.0242 66.7392 0.00536701
60.6687 63.9827 0.00543949
57.5576 63.7039 0.0089599
65.7093 54.1938 0.0110209
64.5543 51.4105 0.0137362
60.7742 60.9559 0.00907983
60.6645 58.1874 0.0119079
62.8317 55.0966 0.0123287
60.3407 55.8208 0.0131114
55.0696 67.9359 2
59.2196 62.3818 2
55.8035 64.92 2
56.328 62.1079 2
65.3502 49.4311 2
63.7205 53.3201 2
62.4666 50.6834 2
59.3368 59.582 2
61.0934 54.344 2
59.2984 57.0466 2
59.2576 55.2218 2
53.0417 69.0029 3.99472
53.9657 66.0207 3.9912
57.8828 60.8912 3.98864
54.6839 63.2211 3.98882
55.2137 60.6376 3.98724
63.2216 48.6892 3.98543
61.7624 52.6086 3.9858
60.3065 50.056 3.98484
58.0238 58.2906 3.98699
59.3466 53.9865 3.98625
58.1391 55.8516 3.98557
50.1084 67.8625 3.99129
47.4628 66.5891 3.98907
46.056 69.1628 3.9913
48.102 68.5843 2
48.802 70.7253 3.99476
50.9476 69.9346 2
51.8506 72.1454 4
54.0858 71.1327 2
56.25 69.9759 0
55.1022 7.13598 3.99453
58.3339 6.31992 4
57.0578 8.33056 2
60.3286 7.74926 2
58.9208 9.65047 0.00553139
62.2254 9.30607 0
68.2763 48.1223 0.0123656
69.4417 43.9178 0.0130002
66.7301 45.4562 0.014042
67.6188 41.5064 0.0141326
70.0535 39.6612 0.0126821
72.4924 37.5121 0.00990999
70.1415 37.5217 2
67.8569 39.5171 2
67.2446 43.4827 2
65.5874 41.2205 2
66.0884 47.4378 2
64.6822 44.8684 2
67.9528 37.5224 3.98637
65.8202 39.376 3.98609
65.2063 43.0407 3.98523
63.7964 40.9415 3.98555
63.9946 46.7409 3.98567
62.8463 44.2394 3.98541
70.0697 35.3886 0.0130088
69.4781 31.1401 0.0130304
67.676 33.5831 0.014503
66.7919 29.6075 0.0142448
62.3419 12.6481 0.00565619
62.2006 15.7634 0.00954011
61.8218 18.6545 0.0122569
65.5419 25.677 0.0134461
64.1742 28.2324 0.0144959
62.8812 24.6058 0.0138608
61.2352 21.3052 0.0136478
60.4539 23.6875 0.0139842
59.2464 12.7623 0.00920514
56.4061 13.0925 0.0114865
55.8738 10.2212 0.0090623
67.8921 35.5436 2
67.2856 31.6107 2
65.7276 33.9184 2
64.6922 30.1735 2
60.7757 14.2042 2
60.6172 17.0993 2
60.235 19.7802 2
63.5648 26.3864 2
62.2942 28.7507 2
59.6847 22.2165 2
61.0773 25.301 2
59.0124 24.2757 2
57.9116 14.3084 2
55.3143 14.6205 2
54.0368 9.12531 2
54.7872 11.9938 2
65.9074 35.6624 3.9852
65.2158 32.1408 3.98475
64.3211 34.2404 3.98464
62.6338 30.6141 3.98502
61.6864 27.04 3.98573
60.8939 29.111 3.98557
59.3127 15.6435 3.98837
59.37 25.7551 3.98618
59.1305 18.3224 3.98699
58.7568 20.8134 3.98587
58.3137 23.0461 3.9857
58.0056 24.6176 3.98674
52.1115 8.1452 3.99099
53.058 11.0022 3.98864
56.6786 15.7148 3.9873
53.8107 13.6586 3.9871
54.3783 15.9698 3.98659
55.0697 67.9356 0.00531678
65.3501 49.4309 0.0139594
55.8036 64.9196 0.0088855
59.2197 62.3814 0.00900668
56.328 62.1075 0.0112885
63.7204 53.3198 0.0130911
62.4665 50.6832 0.0146398
59.3368 59.5816 0.0115261
59.2984 57.0463 0.0132845
61.0933 54.3437 0.0132646
59.2574 55.2215 0.0132878
53.0416 69.0033 2
53.9656 66.0211 2
57.8828 60.8916 2
54.6839 63.2215 2
55.2137 60.638 2
63.2218 48.6893 2
61.7626 52.6088 2
60.3067 50.0562 2
58.0238 58.2909 2
59.3468 53.9867 2
58.1392 55.8519 2
52.0693 67.0062 3.99125
52.9529 64.2298 3.98892
[...]
POINT_DATA 3012
SCALARS rho_c_phif_kappa float 4
LOOKUP_TABLE default
1000 0 1.00005 0.231341
1000 0 1.00004 0.231393
1000 0 1.00005 0.231338
1000 0 1.00005 0.231328
1000 0 1.00005 0.231333
1000 0 1.00005 0.23135
1000.44 5.2203e-10 1.00005 0.231353
1000 0 1.00004 0.231394
1000 0 1.00005 0.23137
1000 0 1.00004 0.231386
1000 0 1.00005 0.231365
1000.45 5.22098e-10 1.00005 0.231345
1000 0 1.00005 0.231355
1000 0 1.00005 0.231308
1000 0 1.00005 0.231335
1000 0 1.00005 0.231318
1000 0 1.00005 0.231347
1000 0 1.00005 0.231329
1000.44 5.21934e-10 1.00005 0.231355
1000 0 1.00005 0.231389
1000 0 1.00005 0.231332
1000 0 1.00005 0.231328
1000.44 5.22619e-10 1.00005 0.231348
1000.44 5.22207e-10 1.00005 0.231351
1000 0 1.00005 0.231359
1000.44 5.2187e-10 1.00005 0.231356
1000.33 3.83341e-10 1.00005 0.231402
1000 0 1.00004 0.231394
1000 0 1.00005 0.231346
1000 0 1.00005 0.231366
1000 0 1.00004 0.2314
1000.44 5.21963e-10 1.00005 0.231343
1000 0 1.00005 0.231316
1000 0 1.00005 0.231337
1000.44 5.21459e-10 1.00005 0.231359
1000 0 1.00004 0.231406
1000.44 5.21969e-10 1.00005 0.231361
1000.45 5.21765e-10 1.00005 0.231348
1000.33 3.83039e-10 1.00005 0.231397
1000 0 1.00004 0.231415
1000 0 1.00005 0.231393
1000 0 1.00005 0.23134
1000 0 1.00005 0.231421
1000 0 1.00005 0.23132
1000.45 5.24484e-10 1.00005 0.231344
1000 0 1.00005 0.231362
1000.44 5.22986e-10 1.00005 0.231357
1000 0 1.00005 0.23131
1000 0 1.00005 0.231325
1000 0 1.00005 0.231345
1000.44 5.2203e-10 1.00005 0.231356
1000 0 1.00005 0.231376
1000 0 1.00005 0.231322
1000 0 1.00005 0.231356
1000 0 1.00005 0.231321
1000.44 5.22614e-10 1.00005 0.231352
1000.44 5.21753e-10 1.00005 0.231357
1000.44 5.22134e-10 1.00005 0.231354
1000.33 3.83364e-10 1.00005 0.231404
1000 0 1.00005 0.2314
1000 0 1.00005 0.231344
1000.45 5.2447e-10 1.00005 0.231358
1000.44 5.22919e-10 1.00005 0.231349
1000.44 5.22352e-10 1.00005 0.231349
1000.33 3.83513e-10 1.00005 0.2314
1000.33 3.83342e-10 1.00005 0.231403
1000 0 1.00005 0.231367
1000.44 5.21643e-10 1.00005 0.231357
1000.33 3.83341e-10 1.00005 0.231399
1000.36 4.18836e-10 1.00005 0.231436
1000 0 1.00005 0.231371
1000 0 1.00004 0.231401
1000 0 1.00004 0.231387
1000.45 5.22098e-10 1.00005 0.231342
1000 0 1.00005 0.231366
1000 0 1.00004 0.231378
1000.44 5.21379e-10 1.00005 0.231337
1000 0 1.00005 0.231389
1000.44 5.2185e-10 1.00005 0.231342
1000.45 5.21621e-10 1.00005 0.231354
1000.33 3.83056e-10 1.00005 0.231397
1000 0 1.00004 0.231411
1000.45 5.20755e-10 1.00005 0.231352
1000.44 5.20789e-10 1.00005 0.23134
1000.44 5.21679e-10 1.00005 0.231345
1000.33 3.82929e-10 1.00005 0.23141
1000.45 5.21282e-10 1.00005 0.231363
1000.33 3.83456e-10 1.00005 0.231403
1000.33 3.83457e-10 1.00005 0.231391
1000.36 4.19586e-10 1.00005 0.231433
1000 0 1.00004 0.231419
1000 0 1.00004 0.231415
1000 0 1.00005 0.231363
1000 0 1.00005 0.231383
1000 0 1.00005 0.23141
1000 0 1.00005 0.231351
1000.45 5.24571e-10 1.00005 0.231349
1000 0 1.00005 0.231335
1000.44 5.23022e-10 1.00005 0.231341
1000 0 1.00005 0.231417
1000.45 5.25514e-10 1.00005 0.231337
1000.45 5.242e-10 1.00005 0.231358
1000.33 3.83907e-10 1.00005 0.231361
1000.44 5.22529e-10 1.00005 0.231349
1000.33 3.83889e-10 1.00005 0.231389
1000 0 1.00005 0.231355
1000 0 1.00005 0.23131
1000 0 1.00005 0.231354
1000 0 1.00005 0.231316
1000.44 5.22619e-10 1.00005 0.231356
1000.44 5.22207e-10 1.00005 0.231355
1000.44 5.2187e-10 1.00005 0.231357
1000.33 3.83341e-10 1.00005 0.231405
1000 0 1.00005 0.231409
1000 0 1.00005 0.231334
1000.45 5.24547e-10 1.00005 0.23135
1000.44 5.2295e-10 1.00005 0.231353
1000 0 1.00005 0.23138
1000.44 5.21513e-10 1.00005 0.231358
1000.44 5.22314e-10 1.00005 0.231353
1000.33 3.83553e-10 1.00005 0.2314
1000.33 3.83363e-10 1.00005 0.231401
1000.33 3.83373e-10 1.00005 0.231404
1000.36 4.18867e-10 1.00005 0.231435
1000.45 5.25343e-10 1.00005 0.231346
1000.44 5.23768e-10 1.00005 0.231351
1000.33 3.83471e-10 1.00005 0.23137
1000.33 3.8373e-10 1.00005 0.231395
1000.33 3.83615e-10 1.00005 0.231402
1000.36 4.18965e-10 1.00005 0.231416
1000 0 1.00004 0.231405
1000.36 4.18958e-10 1.00005 0.231432
1000.44 5.2145e-10 1.00005 0.231343
1000.33 3.83525e-10 1.00005 0.231395
1000.36 4.19071e-10 1.00005 0.231436
1000.35 4.09479e-10 1.00005 0.231434
1000.45 5.21373e-10 1.00005 0.231349
1000.32 3.83246e-10 1.00005 0.231384
1000 0 1.00005 0.231364
1000 0 1.00005 0.231379
1000.44 5.21459e-10 1.00005 0.231334
1000 0 1.00004 0.231406
1000.45 5.21765e-10 1.00005 0.231344
1000.44 5.21969e-10 1.00005 0.231339
1000.33 3.83039e-10 1.00005 0.231397
1000 0 1.00004 0.231411
1000.45 5.20593e-10 1.00005 0.231352
1000.44 5.20802e-10 1.00005 0.231345
1000.44 5.21573e-10 1.00005 0.23135
1000.33 3.83032e-10 1.00005 0.231412
1000.44 5.21127e-10 1.00005 0.231347
1000.33 3.83464e-10 1.00005 0.231403
1000.33 3.83461e-10 1.00005 0.23139
1000.36 4.19602e-10 1.00005 0.231434
1000.45 5.20946e-10 1.00005 0.231349
1000.45 5.20569e-10 1.00005 0.231354
1000.32 3.8358e-10 1.00005 0.231381
1000.33 3.86956e-10 1.00005 0.231409
1000.33 3.83123e-10 1.00005 0.231407
1000.36 4.22292e-10 1.00005 0.231433
1000.33 3.8371e-10 1.00005 0.231385
1000.36 4.18426e-10 1.00005 0.231433
1000.36 4.18756e-10 1.00005 0.231429
1000.35 4.08652e-10 1.00005 0.231425
1000 0 1.00004 0.231423
1000 0 1.00004 0.231419
1000 0 1.00004 0.231416
1000.45 5.21175e-10 1.00005 0.231352
1000 0 1.00004 0.23141
1000 0 1.00005 0.231361
1000 0 1.00005 0.23137
1000.44 5.22986e-10 1.00005 0.231331
1000.45 5.24484e-10 1.00005 0.231341
1000 0 1.00005 0.231401
1000 0 1.00005 0.231423
1000.45 5.25573e-10 1.00005 0.23134
1000.45 5.24246e-10 1.00005 0.231343
1000.33 3.83885e-10 1.00005 0.231362
1000.44 5.22506e-10 1.00005 0.231328
1000.33 3.83892e-10 1.00005 0.23139
1000.45 5.24899e-10 1.00005 0.231344
1000.33 3.82642e-10 1.00005 0.231349
1000.33 3.82112e-10 1.00005 0.231376
1000.36 4.17888e-10 1.00005 0.231372
1000.33 3.81994e-10 1.00005 0.231401
1000.36 4.17117e-10 1.00005 0.231408
1000 0 1.00005 0.23142
1000 0 1.00005 0.231321
1000.45 5.2447e-10 1.00005 0.231346
1000.44 5.22919e-10 1.00005 0.231357
1000 0 1.00004 0.231398
1000.44 5.21643e-10 1.00005 0.231358
1000.44 5.22352e-10 1.00005 0.231355
1000.33 3.83513e-10 1.00005 0.231401
1000.33 3.83342e-10 1.00005 0.231405
1000.33 3.83341e-10 1.00005 0.231403
1000.36 4.18836e-10 1.00005 0.231435
1000.45 5.25413e-10 1.00005 0.231343
1000.44 5.23817e-10 1.00005 0.231355
1000.33 3.83464e-10 1.00005 0.23137
1000.33 3.83753e-10 1.00005 0.231395
1000 0 1.00004 0.231405
1000.44 5.21309e-10 1.00005 0.231353
1000.33 3.8354e-10 1.00005 0.231396
1000.33 3.83641e-10 1.00005 0.231403
1000.36 4.18997e-10 1.00005 0.231416
1000.36 4.19093e-10 1.00005 0.231436
1000.36 4.18979e-10 1.00005 0.231432
1000.35 4.09488e-10 1.00005 0.231435
1000.45 5.21219e-10 1.00005 0.231349
1000.32 3.83246e-10 1.00005 0.231384
1000.33 3.82894e-10 1.00005 0.231354
1000.33 3.82747e-10 1.00005 0.231385
1000.36 4.18775e-10 1.00005 0.231381
1000.36 4.17878e-10 1.00005 0.231408
1000.36 4.18101e-10 1.00005 0.231425
1000.35 4.08352e-10 1.00005 0.23142
1000.45 5.21411e-10 1.00005 0.231345
1000.35 4.08577e-10 1.00005 0.231434
1000.33 3.83569e-10 1.00005 0.23139
1000.36 4.18575e-10 1.00005 0.231437
1000.35 4.08747e-10 1.00005 0.231432
1000.35 4.10461e-10 1.00005 0.23143
1000.32 3.83197e-10 1.00005 0.231384
1000.32 3.83334e-10 1.00005 0.231384
1000.36 4.18965e-10 1.00005 0.231433
1000.44 5.20789e-10 1.00005 0.231331
1000 0 1.00004 0.231411
1000.45 5.20755e-10 1.00005 0.231352
1000.44 5.21679e-10 1.00005 0.231336
1000.33 3.82929e-10 1.00005 0.231414
1000.45 5.21282e-10 1.00005 0.231347
1000.33 3.83457e-10 1.00005 0.23139
1000.33 3.83456e-10 1.00005 0.231404
1000.36 4.19586e-10 1.00005 0.231435
1000.45 5.20789e-10 1.00005 0.231349
1000.45 5.20405e-10 1.00005 0.231354
1000.32 3.83577e-10 1.00005 0.231381
1000.33 3.86781e-10 1.00005 0.23141
1000.33 3.83199e-10 1.00005 0.231409
1000.36 4.22057e-10 1.00005 0.231433
1000.33 3.83703e-10 1.00005 0.231384
1000.36 4.18506e-10 1.00005 0.231434
1000.36 4.18826e-10 1.00005 0.231431
1000.35 4.08736e-10 1.00005 0.231424
1000.45 5.20465e-10 1.00005 0.231355
1000.33 3.83693e-10 1.00005 0.231382
1000.32 3.83678e-10 1.00005 0.23138
1000.36 4.19017e-10 1.00005 0.231427
1000.36 4.0414e-10 1.00005 0.231435
1000.36 4.21508e-10 1.00005 0.231431
1000.35 3.91525e-10 1.00005 0.23143
1000.36 4.18408e-10 1.00005 0.231429
1000.35 4.12756e-10 1.00005 0.23142
1000.35 4.12588e-10 1.00005 0.231421
1000.35 4.15235e-10 1.00005 0.231405
1000.32 3.83123e-10 1.00005 0.231378
1000.45 5.20665e-10 1.00005 0.231358
1000 0 1.00004 0.231426
1000 0 1.00004 0.231423
1000 0 1.00004 0.23142
1000.45 5.20917e-10 1.00005 0.231354
1000 0 1.00004 0.231415
1000.45 5.21017e-10 1.00005 0.231351
1000 0 1.00004 0.23141
1000.44 5.22529e-10 1.00005 0.231329
1000.45 5.242e-10 1.00005 0.231336
1000.33 3.83889e-10 1.00005 0.231391
1000.33 3.83907e-10 1.00005 0.231362
1000.45 5.25514e-10 1.00005 0.231343
1000 0 1.00005 0.231417
1000.45 5.25008e-10 1.00005 0.231343
1000.33 3.82715e-10 1.00005 0.231349
1000.33 3.82209e-10 1.00005 0.231377
1000.36 4.18022e-10 1.00005 0.231372
1000.33 3.82128e-10 1.00005 0.231403
1000.36 4.1727e-10 1.00005 0.231408
1000.33 3.86562e-10 1.00005 0.231346
1000.36 4.26457e-10 1.00005 0.231356
1000.36 4.2502e-10 1.00005 0.23139
1000.35 4.17788e-10 1.00005 0.231375
1000.36 4.25477e-10 1.00005 0.231425
1000.35 4.17491e-10 1.00005 0.231413
1000.45 5.25343e-10 1.00005 0.23134
1000.44 5.23768e-10 1.00005 0.231359
1000.33 3.83471e-10 1.00005 0.23137
1000.33 3.8373e-10 1.00005 0.231396
1000 0 1.00004 0.231404
1000.44 5.2145e-10 1.00005 0.23136
1000.33 3.83525e-10 1.00005 0.231397
1000.33 3.83615e-10 1.00005 0.231403
1000.36 4.18965e-10 1.00005 0.231416
1000.36 4.18958e-10 1.00005 0.231433
1000.36 4.19071e-10 1.00005 0.231435
1000.35 4.09479e-10 1.00005 0.231435
1000.45 5.21373e-10 1.00005 0.231349
1000.32 3.83246e-10 1.00005 0.231384
1000.33 3.82928e-10 1.00005 0.231354
1000.33 3.82809e-10 1.00005 0.231385
1000.36 4.18856e-10 1.00005 0.23138
1000.36 4.17969e-10 1.00005 0.231408
1000.44 5.21261e-10 1.00005 0.231346
1000.33 3.83574e-10 1.00005 0.231391
1000.36 4.18626e-10 1.00005 0.231436
1000.36 4.18179e-10 1.00005 0.231426
1000.35 4.08442e-10 1.00005 0.231421
1000.35 4.08805e-10 1.00005 0.231432
1000.35 4.08642e-10 1.00005 0.231434
1000.35 4.10536e-10 1.00005 0.23143
1000.32 3.83202e-10 1.00005 0.231384
1000.36 4.18984e-10 1.00005 0.231433
1000.32 3.83333e-10 1.00005 0.231384
1000.36 4.23116e-10 1.00005 0.231363
1000.36 4.2194e-10 1.00005 0.231397
1000.35 4.13262e-10 1.00005 0.23138
1000.35 4.12601e-10 1.00005 0.231413
1000.35 4.12253e-10 1.00005 0.231429
1000.35 4.15537e-10 1.00005 0.231427
1000.33 3.83423e-10 1.00005 0.231386
1000.35 4.14401e-10 1.00005 0.231433
1000.36 4.18411e-10 1.00005 0.231436
1000.35 4.11599e-10 1.00005 0.23143
1000.35 4.14345e-10 1.00005 0.23142
1000.35 4.15288e-10 1.00005 0.231426
1000.32 3.83614e-10 1.00005 0.231383
1000.36 4.19114e-10 1.00005 0.231433
1000.36 4.19053e-10 1.00005 0.231433
1000.35 4.09751e-10 1.00005 0.231441
1000.33 3.86956e-10 1.00005 0.231412
1000.45 5.20569e-10 1.00005 0.231354
1000.45 5.20946e-10 1.00005 0.231349
1000.32 3.8358e-10 1.00005 0.23138
1000.33 3.83123e-10 1.00005 0.23141
1000.36 4.22292e-10 1.00005 0.231433
1000.33 3.8371e-10 1.00005 0.231384
1000.36 4.18756e-10 1.00005 0.231432
1000.36 4.18426e-10 1.00005 0.231435
1000.35 4.08652e-10 1.00005 0.231423
1000.45 5.20301e-10 1.00005 0.231355
1000.33 3.83686e-10 1.00005 0.231381
1000.32 3.83662e-10 1.00005 0.231379
1000.36 4.19021e-10 1.00005 0.231428
1000.36 4.0512e-10 1.00005 0.231434
1000.36 4.21328e-10 1.00005 0.231432
1000.35 3.92748e-10 1.00005 0.23143
1000.36 4.18474e-10 1.00005 0.231429
1000.35 4.12544e-10 1.00005 0.231421
1000.35 4.12424e-10 1.00005 0.231421
1000.35 4.15008e-10 1.00005 0.231406
1000.45 5.20561e-10 1.00005 0.231357
1000.32 3.83665e-10 1.00005 0.231378
1000.36 4.18525e-10 1.00005 0.231429
1000.36 4.18512e-10 1.00005 0.231426
1000.35 4.09263e-10 1.00005 0.231438
1000.35 4.68524e-10 1.00005 0.231438
1000.35 3.9561e-10 1.00005 0.23142
1000.35 4.82732e-10 1.00005 0.231422
1000.35 4.13037e-10 1.00005 0.231426
1000.35 3.96595e-10 1.00005 0.231395
1000.35 3.96868e-10 1.00005 0.231398
1000.32 3.83305e-10 1.00005 0.231378
1000.36 4.18914e-10 1.00005 0.231425
1000.32 3.82991e-10 1.00005 0.231378
1000.32 3.83095e-10 1.00005 0.231378
1000.45 5.20778e-10 1.00005 0.231374
1000.45 5.20501e-10 1.00005 0.231367
1000 0 1.00005 0.231399
1000 0 1.00004 0.231426
1000 0 1.00004 0.231423
1000.45 5.20556e-10 1.00005 0.231356
1000 0 1.00004 0.231419
1000.45 5.20755e-10 1.00005 0.231354
1000 0 1.00004 0.231414
1000.45 5.21175e-10 1.00005 0.231351
1000 0 1.00004 0.23141
1000.33 3.81994e-10 1.00005 0.231404
1000.33 3.82112e-10 1.00005 0.231377
1000.36 4.17117e-10 1.00005 0.231408
1000.36 4.17888e-10 1.00005 0.231373
1000.33 3.82642e-10 1.00005 0.231349
1000.45 5.24899e-10 1.00005 0.231343
1000.33 3.86402e-10 1.00005 0.231346
1000.36 4.26078e-10 1.00005 0.231357
1000.36 4.24699e-10 1.00005 0.23139
1000.35 4.17304e-10 1.00005 0.231374
1000.36 4.25076e-10 1.00005 0.231425
1000.35 4.17012e-10 1.00005 0.231413
1000.36 4.09168e-10 1.00005 0.231353
1000.35 3.8187e-10 1.00005 0.231358
1000.35 3.83383e-10 1.00005 0.231394
1000.35 3.7702e-10 1.00005 0.231367
1000.35 3.78694e-10 1.00005 0.231431
1000.35 3.76372e-10 1.00005 0.231403
1000.33 3.82894e-10 1.00005 0.231354
1000.33 3.82747e-10 1.00005 0.231386
1000.36 4.18775e-10 1.00005 0.23138
1000.36 4.17878e-10 1.00005 0.231408
1000.45 5.21411e-10 1.00005 0.231346
1000.33 3.83569e-10 1.00005 0.231391
1000.36 4.18575e-10 1.00005 0.231435
1000.36 4.18101e-10 1.00005 0.231426
1000.35 4.08352e-10 1.00005 0.231422
1000.35 4.08577e-10 1.00005 0.231434
1000.35 4.08747e-10 1.00005 0.231432
1000.35 4.10461e-10 1.00005 0.231431
1000.32 3.83197e-10 1.00005 0.231385
1000.36 4.18965e-10 1.00005 0.231432
1000.32 3.83334e-10 1.00005 0.231384
1000.36 4.22948e-10 1.00005 0.231363
1000.36 4.21799e-10 1.00005 0.231397
1000.35 4.13042e-10 1.00005 0.23138
1000.35 4.12443e-10 1.00005 0.231412
1000.33 3.83422e-10 1.00005 0.231386
1000.36 4.18476e-10 1.00005 0.231435
1000.35 4.1152e-10 1.00005 0.23143
1000.35 4.12107e-10 1.00005 0.231429
1000.35 4.15325e-10 1.00005 0.231427
1000.35 4.14206e-10 1.00005 0.23142
1000.35 4.1424e-10 1.00005 0.231434
1000.35 4.15022e-10 1.00005 0.231425
1000.36 4.19121e-10 1.00005 0.231433
1000.35 4.09762e-10 1.00005 0.231441
1000.32 3.83596e-10 1.00005 0.231384
1000.36 4.19056e-10 1.00005 0.231432
1000.35 3.9639e-10 1.00005 0.231362
1000.35 3.96119e-10 1.00005 0.231401
1000.35 3.9551e-10 1.00005 0.231373
1000.35 3.96677e-10 1.00005 0.231418
1000.35 3.97995e-10 1.00005 0.231433
1000.35 3.91787e-10 1.00005 0.23143
1000.36 4.18568e-10 1.00005 0.231435
1000.35 3.96503e-10 1.00005 0.231434
1000.35 4.12641e-10 1.00005 0.231433
1000.35 4.00973e-10 1.00005 0.231411
1000.35 3.96347e-10 1.00005 0.231408
1000.35 3.87139e-10 1.00005 0.231416
1000.32 3.83082e-10 1.00005 0.231383
1000.36 4.18206e-10 1.00005 0.231432
1000.35 4.09069e-10 1.00005 0.231441
1000.35 4.09027e-10 1.00005 0.231439
1000.35 4.11086e-10 1.00005 0.231427
1000.45 5.20465e-10 1.00005 0.231355
1000.36 4.0414e-10 1.00005 0.231434
1000.32 3.83678e-10 1.00005 0.231379
1000.33 3.83693e-10 1.00005 0.231381
1000.36 4.19017e-10 1.00005 0.231428
1000.36 4.21508e-10 1.00005 0.231432
1000.35 3.91525e-10 1.00005 0.231429
1000.36 4.18408e-10 1.00005 0.23143
1000.35 4.12588e-10 1.00005 0.231421
1000.35 4.12756e-10 1.00005 0.231421
1000.35 4.15235e-10 1.00005 0.231408
1000.45 5.20396e-10 1.00005 0.231357
1000.32 3.83648e-10 1.00005 0.231378
1000.36 4.18561e-10 1.00005 0.231429
1000.36 4.18545e-10 1.00005 0.231426
1000.35 4.09316e-10 1.00005 0.231438
1000.35 4.64559e-10 1.00005 0.231438
1000.35 3.96663e-10 1.00005 0.231419
1000.35 4.77933e-10 1.00005 0.231421
1000.35 4.12829e-10 1.00005 0.231427
1000.35 3.9774e-10 1.00005 0.231397
1000.35 3.98042e-10 1.00005 0.231398
1000.32 3.83442e-10 1.00005 0.231378
1000.36 4.1825e-10 1.00005 0.231425
1000.35 4.11872e-10 1.00005 0.231434
1000.35 4.11799e-10 1.00005 0.231438
1000.35 4.14572e-10 1.00005 0.231427
1000.35 1.69426e-10 1.00005 0.231429
1000.35 4.72149e-10 1.00005 0.231397
1000.35 1.26225e-10 1.00005 0.231394
1000.35 3.96237e-10 1.00005 0.231403
1000.35 4.71163e-10 1.00005 0.231381
1000.32 3.83281e-10 1.00005 0.231378
1000.36 4.18782e-10 1.00005 0.231425
1000.36 4.18913e-10 1.00005 0.231425
1000.35 4.09544e-10 1.00005 0.231442
1000.36 4.18882e-10 1.00005 0.231425
1000.32 3.82791e-10 1.00005 0.231378
1000.32 3.82959e-10 1.00005 0.231378
1000.45 5.20839e-10 1.00005 0.231374
1000.32 3.83123e-10 1.00005 0.231378
1000.45 5.20615e-10 1.00005 0.231375
1000 0 1.00005 0.231401
1000.45 5.20665e-10 1.00005 0.231374
1000 0 1.00004 0.231412
1000 0 1.00004 0.231426
1000.45 5.20373e-10 1.00005 0.231357
1000.45 5.20395e-10 1.00005 0.231355
1000 0 1.00004 0.231422
1000 0 1.00004 0.231418
1000.45 5.20917e-10 1.00005 0.231354
1000 0 1.00004 0.231414
1000.36 4.25477e-10 1.00005 0.231425
1000.36 4.2502e-10 1.00005 0.231391
1000.35 4.17491e-10 1.00005 0.231412
1000.35 4.17788e-10 1.00005 0.231373
1000.36 4.26457e-10 1.00005 0.231357
1000.33 3.86562e-10 1.00005 0.231346
1000.36 4.09845e-10 1.00005 0.231353
1000.35 3.83642e-10 1.00005 0.231357
1000.35 3.85052e-10 1.00005 0.231394
1000.35 3.79227e-10 1.00005 0.231364
1000.35 3.80633e-10 1.00005 0.231431
1000.35 3.7859e-10 1.00005 0.231401
1000.35 4.6225e-10 1.00005 0.231353
1000.35 5.47366e-10 1.00005 0.23135
1000.35 5.35319e-10 1.00005 0.231383
1000.35 5.81079e-10 1.00005 0.231343
1000.35 5.4276e-10 1.00005 0.231417
1000.35 5.6819e-10 1.00005 0.231382
1000.36 4.23116e-10 1.00005 0.231362
1000.36 4.2194e-10 1.00005 0.231397
1000.35 4.13262e-10 1.00005 0.23138
1000.35 4.12601e-10 1.00005 0.231412
1000.33 3.83423e-10 1.00005 0.231387
1000.36 4.18411e-10 1.00005 0.231434
1000.35 4.11599e-10 1.00005 0.23143
1000.35 4.12253e-10 1.00005 0.231429
1000.35 4.15537e-10 1.00005 0.231428
1000.35 4.14401e-10 1.00005 0.231435
1000.35 4.14345e-10 1.00005 0.23142
1000.35 4.15288e-10 1.00005 0.231425
1000.36 4.19114e-10 1.00005 0.231433
1000.35 4.09751e-10 1.00005 0.231441
1000.32 3.83614e-10 1.00005 0.231384
1000.36 4.19053e-10 1.00005 0.231432
1000.35 3.97216e-10 1.00005 0.231362
1000.35 3.96958e-10 1.00005 0.231401
1000.35 3.96523e-10 1.00005 0.231372
1000.35 3.97588e-10 1.00005 0.231418
1000.36 4.18616e-10 1.00005 0.231434
1000.35 4.12461e-10 1.00005 0.231433
1000.35 4.01612e-10 1.00005 0.231411
1000.35 3.98829e-10 1.00005 0.231433
1000.35 3.92978e-10 1.00005 0.231429
1000.35 3.97185e-10 1.00005 0.231409
1000.35 3.97367e-10 1.00005 0.231434
1000.35 3.88525e-10 1.00005 0.231414
1000.35 4.0913e-10 1.00005 0.23144
1000.35 4.1117e-10 1.00005 0.231427
1000.35 4.09102e-10 1.00005 0.231439
1000.32 3.83108e-10 1.00005 0.231383
1000.36 4.18261e-10 1.00005 0.231432
1000.35 4.77704e-10 1.00005 0.231351
1000.35 4.6538e-10 1.00005 0.231391
1000.35 4.82903e-10 1.00005 0.231418
1000.35 4.6638e-10 1.00005 0.231435
1000.35 4.11916e-10 1.00005 0.231438
1000.35 4.98489e-10 1.00005 0.231417
1000.35 3.96067e-10 1.00005 0.231413
1000.35 4.65802e-10 1.00005 0.231396
1000.35 4.87791e-10 1.00005 0.231401
1000.32 3.8292e-10 1.00005 0.231383
1000.36 4.21246e-10 1.00005 0.231432
1000.35 4.12568e-10 1.00005 0.231439
1000.35 4.14533e-10 1.00005 0.231425
1000.35 4.14994e-10 1.00005 0.231422
1000.35 4.15997e-10 1.00005 0.231418
1000.45 5.20561e-10 1.00005 0.231357
1000.32 3.83665e-10 1.00005 0.231378
1000.35 4.68524e-10 1.00005 0.231437
1000.36 4.18512e-10 1.00005 0.231427
1000.36 4.18525e-10 1.00005 0.23143
1000.35 4.09263e-10 1.00005 0.231438
1000.35 3.9561e-10 1.00005 0.231418
1000.35 4.82732e-10 1.00005 0.231419
1000.35 4.13037e-10 1.00005 0.231427
1000.35 3.96868e-10 1.00005 0.231398
1000.35 3.96595e-10 1.00005 0.231399
1000.32 3.83425e-10 1.00005 0.231378
1000.36 4.18268e-10 1.00005 0.231425
1000.35 4.11758e-10 1.00005 0.231435
1000.35 4.11682e-10 1.00005 0.231438
1000.35 4.14412e-10 1.00005 0.231427
1000.35 1.8568e-10 1.00005 0.231429
1000.35 4.67709e-10 1.00005 0.231397