# vtk DataFile Version 2.0
Wound Healing Simulation
ASCII
DATASET UNSTRUCTURED_GRID
POINTS 3012 float
69.9759 18.75 4
67.2507 60.3285 4
69.976 18.75 2
73.0099 25.446 4
71.1327 20.9142 4
68.6801 16.6661 4
67.8277 19.924 3.9882
67.2507 60.3286 2
71.1327 54.0858 4
68.6801 58.3339 4
65.6939 62.2254 4
65.3141 59.0046 3.98938
74.6784 42.3946 4
73.7221 47.2057 4
69.9759 18.75 0
73.0099 25.446 2
68.6801 16.6661 2
71.1327 20.9142 2
67.8282 19.9248 2
74.6792 32.6053 4
73.7222 27.7943 4
72.1454 23.1494 4
70.6161 26.2225 3.987
68.8881 21.9576 3.98792
67.2507 14.6715 4
66.6391 17.9685 3.98881
65.8039 21.0202 3.9836
67.2507 60.3285 0
71.1327 54.0858 2
68.6801 58.3339 2
65.694 62.2255 2
65.3144 59.0045 2
72.1454 51.8506 4
69.9759 56.25 4
68.839 53.1133 3.98771
64.0165 64.0165 4
66.6128 57.1366 3.98896
63.8874 60.7694 3.99056
63.5058 57.7799 3.98487
60.3285 67.2507 4
74.6792 42.3947 2
73.7222 47.2057 2
74.9194 39.9526 4
74.2788 44.8158 4
72.1694 42.0852 3.9855
73.0099 49.554 4
71.2512 46.5968 3.98693
73.0099 25.446 0
71.1327 20.9142 0
68.6801 16.6661 0
67.8277 19.924 0.0117982
74.6792 32.6053 2
73.7222 27.7943 2
67.2508 14.6715 2
72.1455 23.1494 2
70.6163 26.2234 2
66.6395 17.9688 2
68.8885 21.9588 2
65.8041 21.0196 2
74.9197 35.0474 4
74.2794 30.1841 4
72.1859 32.9434 3.98567
71.2798 28.4326 3.98666
69.8179 24.0605 3.98756
68.3521 26.9514 3.97991
66.7693 22.9303 3.98268
65.694 12.7746 4
65.3255 16.0994 3.98979
64.7201 19.1873 3.98459
63.8978 22.0265 3.98095
71.1327 54.0858 0
65.6939 62.2254 0
68.6801 58.3339 0
65.3141 59.0046 0.0106187
72.1455 51.8506 2
69.9759 56.25 2
68.8393 53.1122 2
64.0165 64.0165 2
66.6132 57.1362 2
63.8876 60.7693 2
63.5058 57.7804 2
62.2254 65.694 4
58.8945 65.4164 3.99263
69.7715 50.9879 3.98736
67.7862 55.1691 3.9884
66.6567 52.2119 3.98245
62.3373 62.4303 3.99162
64.6674 56.0383 3.98493
62.2067 59.4133 3.98517
61.8318 56.6934 3.98263
58.3339 68.6801 4
60.3285 67.2508 2
73.7221 47.2057 0
74.6784 42.3946 0
74.9197 39.9526 2
74.2794 44.8159 2
72.1694 42.0857 2
73.0099 49.554 2
71.2512 46.5967 2
75 37.5 4
72.4062 39.8019 3.98453
71.7841 44.3521 3.9864
69.8079 41.7889 3.97846
70.5774 48.812 3.98721
68.9177 46.0143 3.97939
74.6792 32.6053 0
73.7222 27.7943 0
67.2507 14.6715 0
72.1454 23.1494 0
70.6161 26.2225 0.013001
68.8881 21.9576 0.0120753
66.6391 17.9685 0.0111892
65.8039 21.0202 0.0163952
74.9197 35.0474 2
74.2794 30.1841 2
72.1859 32.9435 2
71.2799 28.4331 2
65.694 12.7745 2
65.3258 16.0993 2
69.8181 24.0617 2
68.3521 26.9513 2
64.7204 19.1865 2
66.7694 22.9299 2
63.8981 22.0258 2
72.414 35.224 3.98453
71.8053 30.6769 3.98642
69.8436 33.2687 3.97852
68.9708 29.0386 3.97922
67.6175 24.9108 3.98134
66.2025 27.6324 3.97713
64.0165 10.9835 4
64.7672 23.8237 3.98006
63.8914 14.3234 3.99077
63.5183 17.4375 3.98559
62.9172 20.3089 3.98178
62.107 22.9311 3.97961
60.6846 11.0949 3.99203
57.613 11.4394 3.98716
72.1454 51.8506 0
69.9759 56.25 0
68.839 53.1133 0.0122887
64.0165 64.0165 0
63.8874 60.7694 0.00943898
66.6128 57.1366 0.0110397
63.5058 57.7799 0.0151303
62.2255 65.694 2
58.8947 65.4164 2
69.7716 50.9869 2
67.7866 55.1682 2
66.6567 52.2123 2
62.3375 62.4302 2
64.6676 56.039 2
62.2067 59.4137 2
61.8319 56.694 2
60.6694 63.9794 3.99217
57.025 66.737 3.99311
57.5585 63.6977 3.98748
67.5142 50.1779 3.98112
65.7093 54.178 3.98391
64.5491 51.3913 3.97938
60.7755 60.9461 3.98594
62.8309 55.0788 3.98286
60.6649 58.1721 3.98264
60.3393 55.8009 3.9817
56.25 69.9759 4
58.3339 68.6801 2
60.3285 67.2507 0
58.9216 9.65325 3.99249
62.2254 9.30607 4
73.0099 49.554 0
74.2788 44.8158 0
71.2512 46.5968 0.0130727
72.1694 42.0852 0.014502
74.9194 39.9526 0
75 37.5 2
72.4063 39.8024 2
71.784 44.3524 2
69.808 41.789 2
70.5774 48.8114 2
68.9175 46.0143 2
72.4894 37.5118 3.98408
70.0439 39.6567 3.97726
69.4351 43.9067 3.97911
67.6036 41.4976 3.97553
68.272 48.1073 3.98013
66.7182 45.4411 3.97673
74.9197 35.0474 0
74.2794 30.1841 0
72.1859 32.9434 0.0143305
71.2798 28.4326 0.0133419
65.694 12.7746 0
65.3255 16.0994 0.010208
69.8179 24.0605 0.0124449
68.3521 26.9514 0.0200938
66.7693 22.9303 0.0173188
64.7201 19.1873 0.0154109
63.8978 22.0265 0.0190498
72.4141 35.2241 2
71.8054 30.6771 2
69.8437 33.2688 2
68.9708 29.0386 2
64.0165 10.9835 2
63.8916 14.3234 2
63.5186 17.4368 2
67.6174 24.9106 2
66.2025 27.6321 2
62.9176 20.3081 2
64.7674 23.8231 2
62.1073 22.9305 2
60.6848 11.0948 2
57.613 11.4388 2
70.0605 35.392 3.97747
69.4714 31.1499 3.97907
67.6612 33.5901 3.97553
66.7793 29.6213 3.97631
65.5335 25.6953 3.97854
64.1565 28.2507 3.97625
62.3426 12.6519 3.99148
62.8707 24.6277 3.97892
62.2023 15.7753 3.98583
61.8221 18.6714 3.98301
61.2309 21.327 3.97997
60.4425 23.7126 3.97928
59.2475 12.7705 3.98613
55.8748 10.2261 3.98849
56.4066 13.1017 3.98411
69.7715 50.9879 0.0126399
62.2254 65.694 0
58.8945 65.4164 0.00737445
67.7862 55.1691 0.0115965
66.6567 52.2119 0.0175547
62.3373 62.4303 0.00837515
62.2067 59.4133 0.0148324
64.6674 56.0383 0.0150738
61.8318 56.6934 0.0173733
60.6696 63.9795 2
57.0252 66.7371 2
57.5585 63.6982 2
67.5141 50.1781 2
65.7095 54.1787 2
64.5491 51.392 2
60.7755 60.9468 2
62.831 55.0795 2
60.6648 58.1726 2
60.3394 55.8015 2
55.0704 67.9338 3.99341
59.2207 62.3733 3.98645
55.8046 64.9148 3.98868
56.3284 62.0987 3.98449
65.3423 49.4121 3.97805
63.7177 53.301 3.9812
62.4567 50.6611 3.97786
59.3375 59.5686 3.98382
61.0908 54.323 3.98198
59.2977 57.0279 3.98088
59.255 55.1998 3.98201
48.1028 68.5819 3.99027
50.9482 69.9332 3.99387
54.0858 71.1327 4
56.25 69.976 2
58.3339 68.6801 0
57.0587 8.33316 3.99301
60.3285 7.74928 4
58.9218 9.65314 2
62.2255 9.30602 2
70.5774 48.812 0.0127857
71.7841 44.3521 0.0135977
68.9177 46.0143 0.020606
69.8079 41.7889 0.0215413
72.4062 39.8019 0.0154672
75 37.5 0
72.4895 37.5122 2
70.0441 39.6568 2
69.4351 43.9068 2
67.6037 41.4979 2
68.2719 48.1074 2
66.7181 45.4414 2
70.1315 37.5212 3.97679
67.839 39.512 3.97435
67.2311 43.4705 3.97631
65.5643 41.2111 3.97467
66.0782 47.4203 3.97739
64.6631 44.8515 3.97584
72.414 35.224 0.0154693
71.8053 30.6769 0.0135827
69.8436 33.2687 0.0214847
68.9708 29.0386 0.020781
64.0165 10.9835 0
63.8914 14.3234 0.00923052
63.5183 17.4375 0.0144109
67.6175 24.9108 0.0186617
66.2025 27.6324 0.0228708
64.7672 23.8237 0.0199366
62.9172 20.3089 0.0182187
62.107 22.9311 0.0203925
60.6846 11.0949 0.00797219
57.613 11.4394 0.012843
70.0607 35.3922 2
69.4715 31.15 2
67.6614 33.5899 2
66.7794 29.6211 2
62.3427 12.6518 2
62.2024 15.7747 2
61.8225 18.6707 2
65.5336 25.6948 2
64.1566 28.2503 2
61.2314 21.3264 2
62.8709 24.6272 2
60.4428 23.7121 2
59.2474 12.7699 2
56.4065 13.101 2
55.8748 10.2254 2
67.875 35.547 3.97467
67.2721 31.6212 3.97627
65.7053 33.9252 3.97442
64.672 30.1884 3.97511
63.5502 26.4073 3.97735
62.2694 28.7705 3.9767
60.7772 14.2148 3.98576
61.0614 25.3254 3.97866
60.6182 17.1147 3.9839
60.2333 19.8002 3.9814
59.6767 22.2414 3.9787
58.997 24.3034 3.97945
54.0378 9.12972 3.98917
57.9123 14.3201 3.984
54.7875 12.001 3.98512
55.3143 14.6322 3.98288
67.5142 50.1779 0.0188843
57.025 66.737 0.00689278
60.6694 63.9794 0.00783294
57.5585 63.6977 0.012523
65.7093 54.178 0.016088
64.5491 51.3913 0.0206225
60.7755 60.9461 0.0140639
60.6649 58.1721 0.0173574
62.8309 55.0788 0.0171377
60.3393 55.8009 0.0183017
55.0706 67.9339 2
59.2207 62.374 2
55.8046 64.9153 2
56.3284 62.0992 2
65.3422 49.4127 2
63.7179 53.3018 2
62.4567 50.6618 2
59.3375 59.5694 2
61.0909 54.3237 2
59.2977 57.0284 2
59.2551 55.2003 2
53.0423 69.0015 3.99365
53.9667 66.0167 3.98934
57.8833 60.8802 3.98414
54.6844 63.2145 3.98546
55.2137 60.6267 3.98302
63.2079 48.6677 3.97669
61.7567 52.5869 3.97984
60.2917 50.0312 3.97703
58.0239 58.275 3.98203
59.3426 53.9634 3.98119
58.1372 55.83 3.97918
50.1093 67.8599 3.99004
47.4633 66.5863 3.98803
46.0566 69.1615 3.99052
48.1029 68.5823 2
48.8024 70.7244 3.99406
50.9484 69.9333 2
51.8506 72.1454 4
54.0858 71.1327 2
56.25 69.9759 0
55.1029 7.13778 3.99329
58.3339 6.31992 4
57.0589 8.33299 2
60.3286 7.74926 2
58.9216 9.65325 0.00750709
62.2254 9.30607 0
68.272 48.1073 0.0198705
69.4351 43.9067 0.0208916
66.7182 45.4411 0.0232673
67.6036 41.4976 0.0244731
70.0439 39.6567 0.0227442
72.4894 37.5118 0.0159243
70.1317 37.5213 2
67.8392 39.5122 2
67.2312 43.4708 2
65.5646 41.2115 2
66.0781 47.4207 2
64.6631 44.852 2
67.9345 37.5215 3.97367
65.7939 39.3706 3.97353
65.1858 43.0276 3.97538
63.766 40.9321 3.97445
63.9779 46.7213 3.97632
62.8203 44.2215 3.97651
70.0605 35.392 0.0225343
69.4714 31.1499 0.0209269
67.6612 33.5901 0.0244674
66.7793 29.6213 0.0236927
62.3426 12.6519 0.00852408
62.2023 15.7753 0.0141713
61.8221 18.6714 0.0169946
65.5335 25.6953 0.0214551
64.1565 28.2507 0.0237527
62.8707 24.6277 0.0210763
61.2309 21.327 0.020033
60.4425 23.7126 0.0207179
59.2475 12.7705 0.013866
56.4066 13.1017 0.0158871
55.8748 10.2261 0.0115139
67.8752 35.5469 2
67.2722 31.621 2
65.7056 33.9249 2
64.6721 30.1881 2
60.7772 14.2141 2
60.6184 17.114 2
60.2338 19.7995 2
63.5503 26.4069 2
62.2695 28.7701 2
59.6772 22.2409 2
61.0617 25.325 2
58.9974 24.3031 2
57.9123 14.3195 2
55.3143 14.6314 2
54.0377 9.12912 2
54.7875 12.0002 2
65.8825 35.6656 3.97364
65.195 32.1511 3.97503
64.2931 34.2472 3.97438
62.606 30.6297 3.97499
61.6655 27.0627 3.97686
60.8641 29.131 3.97886
59.3137 15.6568 3.9841
59.3497 25.7819 3.97987
59.1306 18.3399 3.98294
58.7527 20.8357 3.97969
58.302 23.0735 3.97748
57.9877 24.6469 3.98
52.1124 8.1485 3.98957
53.0583 11.0076 3.98611
56.6791 15.7283 3.98321
53.8107 13.6673 3.98337
54.3786 15.983 3.98268
55.0704 67.9338 0.00659355
65.3423 49.4121 0.021948
55.8046 64.9148 0.0113178
59.2207 62.3733 0.0135481
56.3284 62.0987 0.0155081
63.7177 53.301 0.0187962
62.4567 50.6611 0.0221443
59.3375 59.5686 0.0161784
59.2977 57.0279 0.0191209
61.0908 54.323 0.0180219
59.255 55.1998 0.0179861
53.0425 69.0016 2
53.9667 66.0172 2
57.8833 60.8808 2
54.6843 63.215 2
55.2136 60.6273 2
63.2079 48.6683 2
61.7569 52.5876 2
60.2916 50.0319 2
58.024 58.2757 2
59.3427 53.964 2
58.1372 55.8304 2
52.0703 67.003 3.98976
52.9533 64.2245 3.98643
56.652 59.501 3.98298
[...]
POINT_DATA 3012
SCALARS Jp_lamdaP float 4
LOOKUP_TABLE default
1 1 1 1
1 1 1 1
1 1 1 1
0.999999 1 1 0.999999
1 1 1 1
1 1 1 1
0.999937 1 1 0.999937
1 1 1 1
1 1 1 1
1 1 1 1
1 1 1 1
0.999989 1 1 0.999989
0.999994 1 1 0.999994
1 1 1 1
1 1 1 1
1 1 1 1
1 1 1 1
1 1 1 1
0.999938 1 1 0.999938
1 1 1 1
0.999998 1 1 0.999998
1 1 1 1
0.999888 1 1 0.999888
0.999924 1 1 0.999924
1 1 1 1
0.999953 1 1 0.999953
0.999809 1 1 0.999809
1 1 1 1
1 1 1 1
1 1 1 1
1 1 1 1
0.999991 1 1 0.999991
1 1 1 1
1 1 1 1
0.999956 1 1 0.999956
1 1 1 1
0.999981 1 1 0.999981
0.999996 1 1 0.999996
0.999839 1 1 0.999839
1 1 1 1
1 1 1 1
1 1 1 1
1 1 1 1
0.999998 1 1 0.999998
0.999897 1 1 0.999897
1 1 1 1
0.99993 1 1 0.99993
1 1 1 1
1 1 1 1
1 1 1 1
0.999939 1 1 0.999939
0.999997 1 1 0.999997
0.999999 1 1 0.999999
1 1 1 1
1 1 1 1
0.999889 1 1 0.999889
0.999954 1 1 0.999954
0.999925 1 1 0.999925
0.999804 1 1 0.999804
1 1 1 1
0.999997 1 1 0.999997
0.999908 1 1 0.999908
0.999876 1 1 0.999876
0.999907 1 1 0.999907
0.999686 1 1 0.999686
0.999758 1 1 0.999758
1 1 1 1
0.99997 1 1 0.99997
0.999843 1 1 0.999843
0.999632 1 1 0.999632
1 1 1 1
1 1 1 1
1 1 1 1
0.999993 1 1 0.999993
1 1 1 1
1 1 1 1
0.99996 1 1 0.99996
1 1 1 1
0.999984 1 1 0.999984
0.999997 1 1 0.999997
0.999838 1 1 0.999838
1 1 1 1
1 1 1 1
0.999945 1 1 0.999945
0.99997 1 1 0.99997
0.99974 1 1 0.99974
1 1 1 1
0.999823 1 1 0.999823
0.999856 1 1 0.999856
0.999708 1 1 0.999708
1 1 1 1
1 1 1 1
1 1 1 1
1 1 1 1
1 1 1 1
0.999998 1 1 0.999998
0.999903 1 1 0.999903
1 1 1 1
0.999932 1 1 0.999932
1 1 1 1
0.999882 1 1 0.999882
0.999919 1 1 0.999919
0.999582 1 1 0.999582
0.999937 1 1 0.999937
0.99963 1 1 0.99963
0.999995 1 1 0.999995
0.999999 1 1 0.999999
1 1 1 1
1 1 1 1
0.99989 1 1 0.99989
0.999925 1 1 0.999925
0.999954 1 1 0.999954
0.999799 1 1 0.999799
1 1 1 1
0.999997 1 1 0.999997
0.999881 1 1 0.999881
0.999876 1 1 0.999876
1 1 1 1
0.999982 1 1 0.999982
0.999908 1 1 0.999908
0.999675 1 1 0.999675
0.999838 1 1 0.999838
0.999766 1 1 0.999766
0.999633 1 1 0.999633
0.999889 1 1 0.999889
0.999872 1 1 0.999872
0.999611 1 1 0.999611
0.999642 1 1 0.999642
0.999714 1 1 0.999714
0.999514 1 1 0.999514
1 1 1 1
0.999607 1 1 0.999607
0.999999 1 1 0.999999
0.999851 1 1 0.999851
0.999658 1 1 0.999658
0.999562 1 1 0.999562
1 1 1 1
0.9999 1 1 0.9999
1 1 1 1
1 1 1 1
0.999964 1 1 0.999964
1 1 1 1
0.999998 1 1 0.999998
0.999986 1 1 0.999986
0.999838 1 1 0.999838
1 1 1 1
1 1 1 1
0.999948 1 1 0.999948
0.999973 1 1 0.999973
0.999741 1 1 0.999741
1 1 1 1
0.999823 1 1 0.999823
0.999856 1 1 0.999856
0.999703 1 1 0.999703
1 1 1 1
1 1 1 1
0.99991 1 1 0.99991
0.999694 1 1 0.999694
0.999789 1 1 0.999789
0.999592 1 1 0.999592
0.999878 1 1 0.999878
0.999689 1 1 0.999689
0.999716 1 1 0.999716
0.99965 1 1 0.99965
1 1 1 1
1 1 1 1
1 1 1 1
1 1 1 1
1 1 1 1
1 1 1 1
1 1 1 1
0.999933 1 1 0.999933
0.999904 1 1 0.999904
1 1 1 1
1 1 1 1
0.999883 1 1 0.999883
0.999921 1 1 0.999921
0.999582 1 1 0.999582
0.999939 1 1 0.999939
0.999631 1 1 0.999631
0.999877 1 1 0.999877
0.999556 1 1 0.999556
0.999608 1 1 0.999608
0.999437 1 1 0.999437
0.999658 1 1 0.999658
0.99949 1 1 0.99949
1 1 1 1
0.999998 1 1 0.999998
0.999854 1 1 0.999854
0.999877 1 1 0.999877
1 1 1 1
0.999994 1 1 0.999994
0.999909 1 1 0.999909
0.999664 1 1 0.999664
0.999774 1 1 0.999774
0.999833 1 1 0.999833
0.999634 1 1 0.999634
0.999887 1 1 0.999887
0.999872 1 1 0.999872
0.999588 1 1 0.999588
0.999649 1 1 0.999649
1 1 1 1
0.999999 1 1 0.999999
0.99986 1 1 0.99986
0.999715 1 1 0.999715
0.999501 1 1 0.999501
0.999655 1 1 0.999655
0.999613 1 1 0.999613
0.999563 1 1 0.999563
1 1 1 1
0.9999 1 1 0.9999
0.999561 1 1 0.999561
0.999628 1 1 0.999628
0.999455 1 1 0.999455
0.999457 1 1 0.999457
0.999575 1 1 0.999575
0.999449 1 1 0.999449
1 1 1 1
0.999543 1 1 0.999543
0.999866 1 1 0.999866
0.999692 1 1 0.999692
0.999585 1 1 0.999585
0.999544 1 1 0.999544
0.999882 1 1 0.999882
0.999928 1 1 0.999928
0.999733 1 1 0.999733
0.99995 1 1 0.99995
1 1 1 1
1 1 1 1
0.999977 1 1 0.999977
0.999742 1 1 0.999742
1 1 1 1
0.999856 1 1 0.999856
0.999824 1 1 0.999824
0.999699 1 1 0.999699
1 1 1 1
1 1 1 1
0.99991 1 1 0.99991
0.999695 1 1 0.999695
0.99979 1 1 0.99979
0.999592 1 1 0.999592
0.999878 1 1 0.999878
0.999694 1 1 0.999694
0.999715 1 1 0.999715
0.999644 1 1 0.999644
1 1 1 1
0.999894 1 1 0.999894
0.99993 1 1 0.99993
0.999754 1 1 0.999754
0.999547 1 1 0.999547
0.999652 1 1 0.999652
0.999518 1 1 0.999518
0.999735 1 1 0.999735
0.999632 1 1 0.999632
0.999631 1 1 0.999631
0.999601 1 1 0.999601
0.99998 1 1 0.99998
1 1 1 1
1 1 1 1
1 1 1 1
1 1 1 1
1 1 1 1
1 1 1 1
1 1 1 1
1 1 1 1
0.999941 1 1 0.999941
0.999922 1 1 0.999922
0.999631 1 1 0.999631
0.999582 1 1 0.999582
0.999884 1 1 0.999884
1 1 1 1
0.999876 1 1 0.999876
0.999556 1 1 0.999556
0.999608 1 1 0.999608
0.999437 1 1 0.999437
0.999658 1 1 0.999658
0.99949 1 1 0.99949
0.999549 1 1 0.999549
0.999411 1 1 0.999411
0.999464 1 1 0.999464
0.999394 1 1 0.999394
0.999517 1 1 0.999517
0.999441 1 1 0.999441
0.999885 1 1 0.999885
0.999872 1 1 0.999872
0.999565 1 1 0.999565
0.999657 1 1 0.999657
1 1 1 1
0.999998 1 1 0.999998
0.99987 1 1 0.99987
0.999716 1 1 0.999716
0.999488 1 1 0.999488
0.999619 1 1 0.999619
0.999653 1 1 0.999653
0.999565 1 1 0.999565
1 1 1 1
0.9999 1 1 0.9999
0.999553 1 1 0.999553
0.999628 1 1 0.999628
0.99945 1 1 0.99945
0.999471 1 1 0.999471
1 1 1 1
0.999866 1 1 0.999866
0.999701 1 1 0.999701
0.999575 1 1 0.999575
0.999446 1 1 0.999446
0.999575 1 1 0.999575
0.999543 1 1 0.999543
0.999543 1 1 0.999543
0.999883 1 1 0.999883
0.999729 1 1 0.999729
0.999928 1 1 0.999928
0.999437 1 1 0.999437
0.999459 1 1 0.999459
0.999381 1 1 0.999381
0.999404 1 1 0.999404
0.999508 1 1 0.999508
0.999452 1 1 0.999452
0.999875 1 1 0.999875
0.999532 1 1 0.999532
0.999734 1 1 0.999734
0.999607 1 1 0.999607
0.999525 1 1 0.999525
0.999565 1 1 0.999565
0.999956 1 1 0.999956
0.999737 1 1 0.999737
0.999729 1 1 0.999729
0.999665 1 1 0.999665
0.999695 1 1 0.999695
1 1 1 1
1 1 1 1
0.99991 1 1 0.99991
0.999791 1 1 0.999791
0.999592 1 1 0.999592
0.999878 1 1 0.999878
0.999715 1 1 0.999715
0.999699 1 1 0.999699
0.999638 1 1 0.999638
1 1 1 1
0.999894 1 1 0.999894
0.999931 1 1 0.999931
0.999753 1 1 0.999753
0.999547 1 1 0.999547
0.999652 1 1 0.999652
0.999518 1 1 0.999518
0.999735 1 1 0.999735
0.999639 1 1 0.999639
0.999628 1 1 0.999628
0.999615 1 1 0.999615
1 1 1 1
0.999949 1 1 0.999949
0.999747 1 1 0.999747
0.999768 1 1 0.999768
0.999662 1 1 0.999662
0.999483 1 1 0.999483
0.999582 1 1 0.999582
0.999491 1 1 0.999491
0.999642 1 1 0.999642
0.999595 1 1 0.999595
0.999541 1 1 0.999541
0.999972 1 1 0.999972
0.99985 1 1 0.99985
0.999986 1 1 0.999986
0.999982 1 1 0.999982
1 1 1 1
1 1 1 1
1 1 1 1
1 1 1 1
1 1 1 1
1 1 1 1
1 1 1 1
1 1 1 1
1 1 1 1
1 1 1 1
1 1 1 1
0.999659 1 1 0.999659
0.999608 1 1 0.999608
0.99949 1 1 0.99949
0.999437 1 1 0.999437
0.999556 1 1 0.999556
0.999876 1 1 0.999876
0.999548 1 1 0.999548
0.999411 1 1 0.999411
0.999464 1 1 0.999464
0.999392 1 1 0.999392
0.999517 1 1 0.999517
0.999441 1 1 0.999441
0.999403 1 1 0.999403
0.999371 1 1 0.999371
0.999413 1 1 0.999413
0.999384 1 1 0.999384
0.999465 1 1 0.999465
0.99946 1 1 0.99946
0.999545 1 1 0.999545
0.999628 1 1 0.999628
0.999446 1 1 0.999446
0.999485 1 1 0.999485
1 1 1 1
0.999866 1 1 0.999866
0.99971 1 1 0.99971
0.999575 1 1 0.999575
0.999443 1 1 0.999443
0.999543 1 1 0.999543
0.999565 1 1 0.999565
0.999542 1 1 0.999542
0.999884 1 1 0.999884
0.999725 1 1 0.999725
0.999927 1 1 0.999927
0.999426 1 1 0.999426
0.999459 1 1 0.999459
0.999375 1 1 0.999375
0.999407 1 1 0.999407
0.999875 1 1 0.999875
0.999733 1 1 0.999733
0.999616 1 1 0.999616
0.999512 1 1 0.999512
0.999457 1 1 0.999457
0.999517 1 1 0.999517
0.999532 1 1 0.999532
0.999569 1 1 0.999569
0.999738 1 1 0.999738
0.999658 1 1 0.999658
0.999954 1 1 0.999954
0.999733 1 1 0.999733
0.999361 1 1 0.999361
0.999383 1 1 0.999383
0.999342 1 1 0.999342
0.999398 1 1 0.999398
0.999511 1 1 0.999511
0.999479 1 1 0.999479
0.999742 1 1 0.999742
0.999575 1 1 0.999575
0.999654 1 1 0.999654
0.999538 1 1 0.999538
0.999485 1 1 0.999485
0.99957 1 1 0.99957
0.999971 1 1 0.999971
0.999757 1 1 0.999757
0.999672 1 1 0.999672
0.999644 1 1 0.999644
0.99963 1 1 0.99963
1 1 1 1
0.999546 1 1 0.999546
0.999931 1 1 0.999931
0.999894 1 1 0.999894
0.999752 1 1 0.999752
0.999653 1 1 0.999653
0.999518 1 1 0.999518
0.999735 1 1 0.999735
0.999626 1 1 0.999626
0.999645 1 1 0.999645
0.999628 1 1 0.999628
1 1 1 1
0.99995 1 1 0.99995
0.999747 1 1 0.999747
0.999767 1 1 0.999767
0.99966 1 1 0.99966
0.999481 1 1 0.999481
0.999582 1 1 0.999582
0.999488 1 1 0.999488
0.999643 1 1 0.999643
0.999599 1 1 0.999599
0.999548 1 1 0.999548
0.999963 1 1 0.999963
0.999787 1 1 0.999787
0.999655 1 1 0.999655
0.999668 1 1 0.999668
0.99962 1 1 0.99962
0.999468 1 1 0.999468
0.999547 1 1 0.999547
0.999517 1 1 0.999517
0.999561 1 1 0.999561
0.999498 1 1 0.999498
0.999975 1 1 0.999975
0.999812 1 1 0.999812
0.99984 1 1 0.99984
0.99975 1 1 0.99975
0.99986 1 1 0.99986
0.99999 1 1 0.99999
0.999987 1 1 0.999987
1 1 1 1
0.999984 1 1 0.999984
1 1 1 1
1 1 1 1
1 1 1 1
1 1 1 1
1 1 1 1
1 1 1 1
1 1 1 1
1 1 1 1
1 1 1 1
1 1 1 1
1 1 1 1
0.999516 1 1 0.999516
0.999464 1 1 0.999464
0.999442 1 1 0.999442
0.99939 1 1 0.99939
0.999411 1 1 0.999411
0.999548 1 1 0.999548
0.999403 1 1 0.999403
0.999368 1 1 0.999368
0.999414 1 1 0.999414
0.999383 1 1 0.999383
0.999463 1 1 0.999463
0.999461 1 1 0.999461
0.999355 1 1 0.999355
0.999361 1 1 0.999361
0.999412 1 1 0.999412
0.999375 1 1 0.999375
0.999469 1 1 0.999469
0.999482 1 1 0.999482
0.999416 1 1 0.999416
0.999458 1 1 0.999458
0.999368 1 1 0.999368
0.99941 1 1 0.99941
0.999875 1 1 0.999875
0.999733 1 1 0.999733
0.999626 1 1 0.999626
0.999516 1 1 0.999516
0.999462 1 1 0.999462
0.999533 1 1 0.999533
0.999508 1 1 0.999508
0.999573 1 1 0.999573
0.999739 1 1 0.999739
0.99965 1 1 0.99965
0.999952 1 1 0.999952
0.999736 1 1 0.999736
0.999362 1 1 0.999362
0.999385 1 1 0.999385
0.999341 1 1 0.999341
0.999399 1 1 0.999399
0.999742 1 1 0.999742
0.999661 1 1 0.999661
0.999538 1 1 0.999538
0.999507 1 1 0.999507
0.999497 1 1 0.999497
0.999481 1 1 0.999481
0.999576 1 1 0.999576
0.999584 1 1 0.999584
0.999672 1 1 0.999672
0.999628 1 1 0.999628
0.999643 1 1 0.999643
0.999957 1 1 0.999957
0.999762 1 1 0.999762
0.999333 1 1 0.999333
0.999331 1 1 0.999331
0.999422 1 1 0.999422
0.999543 1 1 0.999543
0.999681 1 1 0.999681
0.999621 1 1 0.999621
0.999599 1 1 0.999599
0.999451 1 1 0.999451
0.999452 1 1 0.999452
0.999957 1 1 0.999957
0.999811 1 1 0.999811
0.999665 1 1 0.999665
0.999646 1 1 0.999646
0.999579 1 1 0.999579
0.999602 1 1 0.999602
1 1 1 1
0.999951 1 1 0.999951
0.99948 1 1 0.99948
0.999767 1 1 0.999767
0.999747 1 1 0.999747
0.999657 1 1 0.999657
0.999583 1 1 0.999583
0.999486 1 1 0.999486
0.999644 1 1 0.999644
0.999555 1 1 0.999555
0.999603 1 1 0.999603
0.999965 1 1 0.999965
0.999787 1 1 0.999787
0.99966 1 1 0.99966
0.999668 1 1 0.999668
0.999614 1 1 0.999614
0.999466 1 1 0.999466
0.999545 1 1 0.999545
0.999521 1 1 0.999521
0.999556 1 1 0.999556
0.999486 1 1 0.999486
0.999808 1 1 0.999808
0.999666 1 1 0.999666
0.999595 1 1 0.999595
0.9996 1 1 0.9996
0.99958 1 1 0.99958
0.999557 1 1 0.999557
0.999481 1 1 0.999481
0.999504 1 1 0.999504
0.999498 1 1 0.999498
0.999388 1 1 0.999388
0.999977 1 1 0.999977
0.999819 1 1 0.999819
0.999702 1 1 0.999702
0.999831 1 1 0.999831
0.99986 1 1 0.99986
0.999736 1 1 0.999736
0.999662 1 1 0.999662
0.999733 1 1 0.999733
0.999869 1 1 0.999869
0.999992 1 1 0.999992
0.999991 1 1 0.999991
1 1 1 1
0.999988 1 1 0.999988
1 1 1 1
1 1 1 1
1 1 1 1
1 1 1 1
1 1 1 1
1 1 1 1
1 1 1 1
1 1 1 1
1 1 1 1
1 1 1 1
1 1 1 1
0.999462 1 1 0.999462
0.999414 1 1 0.999414
0.999461 1 1 0.999461
0.999381 1 1 0.999381
0.999365 1 1 0.999365
0.999403 1 1 0.999403
0.999353 1 1 0.999353
0.999362 1 1 0.999362
0.999407 1 1 0.999407
0.999369 1 1 0.999369
0.999469 1 1 0.999469
0.999496 1 1 0.999496
0.999349 1 1 0.999349
0.999365 1 1 0.999365
0.999411 1 1 0.999411
0.999541 1 1 0.999541
0.999362 1 1 0.999362
0.999387 1 1 0.999387
0.999339 1 1 0.999339
0.999401 1 1 0.999401
0.999742 1 1 0.999742
0.999669 1 1 0.999669
0.999537 1 1 0.999537
0.999503 1 1 0.999503
0.999516 1 1 0.999516
0.999577 1 1 0.999577
0.999476 1 1 0.999476
0.999597 1 1 0.999597
0.999672 1 1 0.999672
0.999625 1 1 0.999625
0.999641 1 1 0.999641
0.999943 1 1 0.999943
0.999766 1 1 0.999766
0.999332 1 1 0.999332
0.999337 1 1 0.999337
0.999429 1 1 0.999429
0.99968 1 1 0.99968
0.999609 1 1 0.999609
0.999448 1 1 0.999448
0.999535 1 1 0.999535
0.999472 1 1 0.999472
0.999618 1 1 0.999618
0.999957 1 1 0.999957
0.999645 1 1 0.999645
0.999608 1 1 0.999608
0.99958 1 1 0.99958
0.999669 1 1 0.999669
0.999801 1 1 0.999801
0.999325 1 1 0.999325
0.999325 1 1 0.999325
0.999472 1 1 0.999472
0.999608 1 1 0.999608
0.999643 1 1 0.999643
0.999516 1 1 0.999516
0.999505 1 1 0.999505
0.999382 1 1 0.999382
0.999968 1 1 0.999968
0.99984 1 1 0.99984
0.9997 1 1 0.9997
0.999564 1 1 0.999564
0.99961 1 1 0.99961
0.999556 1 1 0.999556
0.999967 1 1 0.999967
0.999787 1 1 0.999787
0.999465 1 1 0.999465
0.999667 1 1 0.999667
0.999666 1 1 0.999666
0.999609 1 1 0.999609
0.999542 1 1 0.999542
0.999524 1 1 0.999524
0.99955 1 1 0.99955
0.999475 1 1 0.999475
0.999808 1 1 0.999808
0.99967 1 1 0.99967
0.999604 1 1 0.999604
0.999605 1 1 0.999605
0.999584 1 1 0.999584
0.99956 1 1 0.99956
0.999484 1 1 0.999484
0.999533 1 1 0.999533
0.999491 1 1 0.999491
0.999376 1 1 0.999376
0.999684 1 1 0.999684
0.999582 1 1 0.999582
0.999538 1 1 0.999538
0.999545 1 1 0.999545
0.999548 1 1 0.999548
0.999535 1 0.999961 0.999573
0.99938 1 1 0.99938
0.999918 1 1.00056 0.999355
0.999826 1 1 0.999826
0.999709 1 1 0.999709
0.999636 1 1 0.999636
0.99986 1 1 0.99986
0.999722 1 1 0.999722
0.999869 1 1 0.999869
0.999652 1 1 0.999652
0.999738 1 1 0.999738
0.999594 1 1 0.999594
0.999649 1 1 0.999649
0.999741 1 1 0.999741
0.999874 1 1 0.999874
0.999993 1 1 0.999993
0.999992 1 1 0.999992
1 1 1 1
0.999991 1 1 0.999991
1 1 1 1
1 1 1 1
1 1 1 1
1 1 1 1
1 1 1 1
1 1 1 1
1 1 1 1
1 1 1 1
1 1 1 1
1 1 1 1
1 1 1 1
0.999469 1 1 0.999469
0.999402 1 1 0.999402
0.999509 1 1 0.999509
0.999362 1 1 0.999362
0.999364 1 1 0.999364
0.999352 1 1 0.999352
0.999349 1 1 0.999349
0.999365 1 1 0.999365
0.999417 1 1 0.999417
0.999537 1 1 0.999537
0.999356 1 1 0.999356
0.999391 1 1 0.999391
0.999474 1 1 0.999474
0.999331 1 1 0.999331
0.999342 1 1 0.999342
0.999436 1 1 0.999436
0.99968 1 1 0.99968
0.999619 1 1 0.999619
0.999446 1 1 0.999446
0.999528 1 1 0.999528
0.999614 1 1 0.999614
0.999492 1 1 0.999492
0.999644 1 1 0.999644
0.999614 1 1 0.999614
0.999581 1 1 0.999581
0.999958 1 1 0.999958
0.999673 1 1 0.999673
0.99979 1 1 0.99979
0.99933 1 1 0.99933
0.999323 1 1 0.999323
0.999461 1 1 0.999461
0.999641 1 1 0.999641
0.99952 1 1 0.99952
0.999425 1 1.00004 0.999387
0.999615 1 1 0.999615
0.999515 1 1 0.999515
0.999978 1 1 0.999978
0.99984 1 1 0.99984
0.99961 1 1 0.99961
0.999559 1 1 0.999559
0.999569 1 1 0.999569
0.999692 1 1 0.999692
0.999347 1 1 0.999347
0.999343 1 1 0.999343
0.999495 1 0.999905 0.999585
0.999622 1 1 0.999622
0.999587 1 1 0.999587
1.00062 1 1.00127 0.999349
0.999434 1 1 0.999434
0.999996 1 1 0.999996
0.999897 1 1 0.999897
0.999844 1 1 0.999844
0.999709 1 1 0.999709
0.999594 1 1 0.999594
0.999504 1 1 0.999504
0.999587 1 1 0.999587
0.999528 1 1 0.999528
0.999808 1 1 0.999808
0.999674 1 1 0.999674
0.999562 1 1 0.999562
0.999609 1 1 0.999609
0.999612 1 1 0.999612
0.999589 1 1 0.999589
0.999488 1 1 0.999488
0.999561 1 1 0.999561
0.999484 1 1 0.999484
0.999364 1 1 0.999364
0.999681 1 1 0.999681
0.99959 1 1 0.99959
0.999545 1 1 0.999545
0.999551 1 1 0.999551
0.999546 1 1 0.999546
0.999568 1 0.999998 0.999569
0.999394 1 1 0.999394
0.999735 1 1.00038 0.99935
0.999614 1 1 0.999614
0.999468 1 1 0.999468
0.999533 1 1 0.999533
0.999471 1 1 0.999471
0.999851 1.00045 0.99982 0.999577
0.999361 1 1 0.999361
1.0003 1 1.00101 0.999293
0.999715 1 1 0.999715
0.999636 1 1 0.999636
0.999575 1 1 0.999575
0.999869 1 1 0.999869
0.999743 1 1 0.999743
0.999641 1 1 0.999641
0.999874 1 1 0.999874
0.99974 1 1 0.99974
0.999586 1 1 0.999586
0.99966 1 1 0.99966
0.999545 1 1 0.999545
0.999581 1 1 0.999581
0.999669 1 1 0.999669
0.999757 1 1 0.999757
0.999875 1 1 0.999875
0.999992 1 1 0.999992
0.999993 1 1 0.999993
1 1 1 1
0.999993 1 1 0.999993
1 1 1 1
1 1 1 1
1 1 1 1
1 1 1 1
1 1 1 1
0.999999 1 1 0.999999
1 1 1 1
1 1 1 1
1 1 1 1
1 1 1 1
1 1 1 1
1 1 1 1
0.999532 1 1 0.999532
0.999423 1 1 0.999423
0.999365 1 1 0.999365
0.99935 1 1 0.99935
0.999361 1 1 0.999361
0.999384 1 1 0.999384
0.999488 1 1 0.999488
0.999384 1 1 0.999384
0.999411 1 1 0.999411
0.999487 1 1 0.999487
0.999334 1 1 0.999334
0.999321 1 1 0.999321
0.99945 1 1 0.99945
0.99964 1 1 0.99964
0.999534 1 1 0.999534
0.999393 1 1 0.999393
0.999622 1 1 0.999622
0.999513 1 1 0.999513
0.999609 1 1 0.999609
0.999562 1 1 0.999562
0.999575 1 1 0.999575
0.999988 1 1 0.999988
0.99984 1 1 0.99984
0.999684 1 1 0.999684
0.999347 1 1 0.999347
0.999995 1 1 0.999995
0.999889 1 1 0.999889
0.999344 1 1 0.999344
0.999565 1 1 0.999564
0.999594 1 1 0.999594
0.999481 1 1.00006 0.999418
0.999929 1 1.00058 0.999354
0.999619 1 1 0.999619
0.999864 1 1 0.999864
0.999708 1 1 0.999708
0.999586 1 1 0.999586
0.999545 1 1 0.999545
0.999492 1 1 0.999492
0.999596 1 1 0.999596
0.999359 1 1 0.999359
0.999574 1.00015 1 0.999428
0.999496 1.0002 0.999601 0.999697
0.999449 1 1 0.999449
0.999547 1 1 0.999547
1.00151 1 1.0022 0.999314
0.999896 1 1 0.999896
0.999881 1 1 0.999881
0.999797 1 1 0.999797
0.999715 1 1 0.999715
0.999623 1 1 0.999623
0.99951 1 1 0.99951
0.999441 1 1 0.999441
0.999547 1 1 0.999547
0.999678 1 1 0.999678
0.999597 1 1 0.999597
0.999544 1 1 0.999544
0.999565 1 1 0.999565
0.999557 1 1 0.999557
0.999553 1 1 0.999553
0.999407 1 1 0.999407
0.999583 1 1.00024 0.999344
0.999614 1 1 0.999614
0.999483 1 1 0.999483
0.999533 1 1 0.999533
0.999551 1 1.00009 0.999458
0.999653 1.00023 0.999858 0.999569
0.999378 1.00001 1 0.999365
1.00019 1 1.0009 0.999291
0.999547 1 1 0.999547
1.00338 1.00443 0.999451 0.999507
0.999489 1 1 0.999489
0.999936 1 1.00058 0.99936
0.997487 1.00045 0.997667 0.999375
1.00065 1 1.00141 0.999248
1.00455 1.00701 0.998219 0.999341
0.999636 1 1 0.999636
0.999575 1 1 0.999575
0.999533 1 1 0.999533
0.999874 1 1 0.999874
0.999739 1 1 0.999739
0.999671 1 1 0.999671
0.999578 1 1 0.999578
0.999875 1 1 0.999875
0.99975 1 1 0.99975
0.999543 1 1 0.999543
0.999669 1 1 0.999669
0.99959 1 1 0.99959
0.999523 1 1 0.999523
0.999609 1 1 0.999609
0.999677 1 1 0.999677
0.999741 1 1 0.999741
0.999855 1 1 0.999855
0.999773 1 1 0.999773
0.999855 1 1 0.999855
0.999992 1 1 0.999992
0.999992 1 1 0.999992
1 1 1 1
0.999992 1 1 0.999992
1 1 1 1
1 1 1 1
1 1 1 1
1 1 1 1
1 1 1 1
1 1 1 1
0.999998 1 1 0.999998
1 1 1 1
1 1 1 1
1 1 1 1
1 1 1 1
1 1 1 1
1 1 1 1
0.999502 1 1 0.999502
0.999377 1 1 0.999377
0.999367 1 1 0.999367
0.999384 1 1 0.999384
0.999418 1 1 0.999418
0.999493 1 1 0.999493
0.999431 1 1 0.999431
1.00043 1.00555 0.995308 0.999595
1.00146 1.00217 0.999705 0.999583
0.999922 1 1 0.999922
0.999348 1 1 0.999348
0.999346 1 1 0.999346
0.999544 1 1 0.999544
0.999601 1 1 0.999601
0.999739 1 1.00034 0.999402
0.999478 1 1.00012 0.99936
0.999617 1 1 0.999617
0.999585 1 1 0.999585
0.999562 1 1 0.999562
0.99948 1 1 0.99948
0.999993 1 1 0.999993
0.999598 1 1 0.999598
0.999884 1 1 0.999884
0.999708 1 1 0.999708
0.999882 1 1 0.999882
0.999353 1 1 0.999353
0.999905 1 1 0.999905
0.999881 1 1 0.999881
0.999781 1 1 0.999781
0.999639 1.00021 1 0.999431
0.99924 1.0001 0.999469 0.99967
0.999551 1 1 0.999551
1.00159 1 1.00229 0.999307
0.999616 1 1.00016 0.999454
0.999726 1 1 0.999726
0.999619 1 1 0.999619
0.99954 1 1 0.99954
0.999491 1 1.00004 0.999452
0.999518 1 1 0.999518
0.999602 1.00021 1.00004 0.999343
0.997721 1.00078 0.997374 0.999573
0.999493 1.00025 0.999716 0.999528
1.00072 1 1.00139 0.99933
1.00095 1 1.00148 0.999472
0.999782 1 1 0.999782
0.999743 1 1 0.999743
0.999696 1 1 0.999696
0.999629 1 1 0.999629
0.999553 1 1 0.999553
0.999459 1 1 0.999459
1.00103 1 1.00161 0.99942
0.999613 1 1 0.999613
0.999533 1 1 0.999533
0.999499 1 1 0.999499
0.999414 1 0.999852 0.999562
0.999378 1.00001 1 0.999368
0.999609 1 1.00016 0.999445