# vtk DataFile Version 2.0
Wound Healing Simulation
ASCII
DATASET UNSTRUCTURED_GRID
POINTS 3012 float
69.9759 18.75 4
67.2507 60.3285 4
69.976 18.75 2
73.0099 25.446 4
71.1327 20.9142 4
68.6801 16.6661 4
67.8274 19.9255 3.98674
67.2507 60.3286 2
71.1327 54.0858 4
68.6801 58.3339 4
65.6939 62.2254 4
65.3139 59.0033 3.98774
74.6784 42.3946 4
73.7221 47.2057 4
69.9759 18.75 0
73.0099 25.446 2
68.6801 16.6661 2
71.1327 20.9142 2
67.828 19.9273 2
74.6792 32.6053 4
73.7222 27.7943 4
72.1454 23.1494 4
70.6154 26.2223 3.98546
68.8876 21.9586 3.9864
67.2507 14.6715 4
66.639 17.9701 3.98736
65.8022 21.0229 3.98074
67.2507 60.3285 0
71.1327 54.0858 2
68.6801 58.3339 2
65.694 62.2255 2
65.3146 59.0024 2
72.1454 51.8506 4
69.9759 56.25 4
68.8381 53.1128 3.98588
64.0165 64.0165 4
66.6125 57.1353 3.9874
63.8873 60.7682 3.98921
63.5046 57.7773 3.9827
60.3285 67.2507 4
74.6792 42.3947 2
73.7222 47.2057 2
74.9194 39.9526 4
74.2788 44.8158 4
72.1689 42.0857 3.98371
73.0099 49.554 4
71.2504 46.5977 3.98502
73.0099 25.446 0
71.1327 20.9142 0
68.6801 16.6661 0
67.8274 19.9255 0.0132638
74.6792 32.6053 2
73.7222 27.7943 2
67.2508 14.6715 2
72.1455 23.1494 2
70.6155 26.2229 2
66.6397 17.9714 2
68.8878 21.9604 2
65.8021 21.0224 2
74.9197 35.0474 4
74.2794 30.1841 4
72.1855 32.9434 3.98413
71.2794 28.4321 3.98539
69.8171 24.061 3.98594
68.3499 26.952 3.97693
66.767 22.9325 3.9792
65.694 12.7746 4
65.3255 16.1009 3.98848
64.719 19.1903 3.98224
63.8942 22.031 3.97722
71.1327 54.0858 0
65.6939 62.2254 0
68.6801 58.3339 0
65.3139 59.0033 0.0122621
72.1455 51.8506 2
69.9759 56.25 2
68.8384 53.1109 2
64.0165 64.0165 2
66.6133 57.1338 2
63.8878 60.7678 2
63.5048 57.7781 2
62.2254 65.694 4
58.895 65.4155 3.99261
69.7704 50.988 3.98542
67.7856 55.1681 3.98673
66.6537 52.2105 3.97858
62.3374 62.4294 3.99087
64.6658 56.0359 3.98242
62.206 59.4107 3.98341
61.8294 56.6896 3.97987
58.3339 68.6801 4
60.3285 67.2508 2
73.7221 47.2057 0
74.6784 42.3946 0
74.9197 39.9526 2
74.2794 44.8159 2
72.1688 42.0857 2
73.0099 49.554 2
71.2504 46.5975 2
75 37.5 4
72.4059 39.8023 3.98321
71.7835 44.3528 3.98447
69.806 41.79 3.97547
70.5764 48.8128 3.98524
68.9153 46.0152 3.97651
74.6792 32.6053 0
73.7222 27.7943 0
67.2507 14.6715 0
72.1454 23.1494 0
70.6154 26.2223 0.0145412
68.8876 21.9586 0.013602
66.639 17.9701 0.0126383
65.8022 21.0229 0.0192607
74.9197 35.0474 2
74.2794 30.1841 2
72.1854 32.9434 2
71.2794 28.4323 2
65.694 12.7745 2
65.3261 16.1014 2
69.8173 24.0622 2
68.3498 26.9521 2
64.7192 19.1894 2
66.7667 22.9324 2
63.8942 22.0303 2
72.4137 35.2242 3.98329
71.8049 30.6766 3.98511
69.8421 33.2686 3.97583
68.9693 29.0384 3.97713
67.6148 24.9123 3.97775
66.1984 27.6342 3.97366
64.0165 10.9835 4
64.7625 23.8278 3.97565
63.8915 14.3246 3.98969
63.5179 17.4403 3.98388
62.9146 20.3135 3.97858
62.1011 22.9373 3.97529
60.6848 11.0957 3.99156
57.6134 11.4411 3.98644
72.1454 51.8506 0
69.9759 56.25 0
68.8381 53.1128 0.0141245
64.0165 64.0165 0
63.8873 60.7682 0.0107889
66.6125 57.1353 0.0125952
63.5046 57.7773 0.0173008
62.2255 65.694 2
58.8953 65.4156 2
69.7706 50.9867 2
67.7862 55.166 2
66.6535 52.2105 2
62.3379 62.4291 2
64.666 56.0367 2
62.2061 59.4115 2
61.8296 56.6906 2
60.6696 63.9786 3.99183
57.0256 66.7364 3.9932
57.559 63.6963 3.98721
67.5109 50.1773 3.97713
65.7069 54.176 3.98068
64.5432 51.3885 3.97466
60.7752 60.9439 3.98455
62.8275 55.0751 3.97967
60.6631 58.1685 3.98008
60.3354 55.796 3.9787
56.25 69.9759 4
58.3339 68.6801 2
60.3285 67.2507 0
58.9219 9.65402 3.99223
62.2254 9.30607 4
73.0099 49.554 0
74.2788 44.8158 0
71.2504 46.5977 0.0149751
72.1689 42.0857 0.0162884
74.9194 39.9526 0
75 37.5 2
72.4058 39.8024 2
71.7835 44.3527 2
69.806 41.7899 2
70.5765 48.812 2
68.9153 46.015 2
72.4892 37.5121 3.98315
70.0424 39.6576 3.97442
69.433 43.9079 3.97617
67.6001 41.4987 3.97208
68.2691 48.1075 3.97669
66.714 45.4416 3.97326
74.9197 35.0474 0
74.2794 30.1841 0
72.1855 32.9434 0.0158749
71.2794 28.4321 0.0146074
65.694 12.7746 0
65.3255 16.1009 0.0115237
69.8171 24.061 0.0140631
68.3499 26.952 0.0230737
66.767 22.9325 0.0208046
64.719 19.1903 0.0177595
63.8942 22.031 0.0227762
72.4137 35.2241 2
71.805 30.6765 2
69.8421 33.2688 2
68.9693 29.0386 2
64.0165 10.9835 2
63.892 14.3249 2
63.5181 17.4394 2
67.6147 24.9123 2
66.1984 27.6341 2
62.9149 20.3125 2
64.7623 23.8274 2
62.1011 22.9368 2
60.6852 11.096 2
57.6135 11.4404 2
70.0592 35.3922 3.97475
69.4701 31.1496 3.97689
67.6583 33.5907 3.97227
66.7766 29.622 3.97382
65.5286 25.6984 3.97431
64.1505 28.2541 3.97276
62.3427 12.6528 3.99067
62.8634 24.6338 3.97381
62.2022 15.7777 3.98456
61.8206 18.6756 3.98048
61.2265 21.3333 3.97617
60.4342 23.7204 3.97465
59.2476 12.7726 3.98488
55.8752 10.2278 3.98788
56.4066 13.1041 3.98324
69.7704 50.988 0.0145835
62.2254 65.694 0
58.895 65.4155 0.0073911
67.7856 55.1681 0.0132739
66.6537 52.2105 0.0214244
62.3374 62.4294 0.0091259
62.206 59.4107 0.0165938
64.6658 56.0359 0.0175784
61.8294 56.6896 0.0201349
60.67 63.9784 2
57.0258 66.7364 2
57.5589 63.6971 2
67.5108 50.177 2
65.707 54.1765 2
64.5432 51.3889 2
60.7753 60.9448 2
62.8278 55.076 2
60.6633 58.1694 2
60.3357 55.7968 2
55.071 67.9333 3.99348
59.2207 62.3714 3.98539
55.8055 64.9139 3.98894
56.3283 62.0971 3.9839
65.3362 49.4104 3.9734
63.713 53.2975 3.97713
62.4477 50.6569 3.97264
59.3364 59.5657 3.98206
61.0856 54.3181 3.9786
59.2947 57.0232 3.97766
59.2501 55.1939 3.97993
48.1035 68.5815 3.99027
50.9486 69.9329 3.99391
54.0858 71.1327 4
56.25 69.976 2
58.3339 68.6801 0
57.059 8.33396 3.99259
60.3285 7.74928 4
58.9223 9.6541 2
62.2255 9.30602 2
70.5764 48.8128 0.0147642
71.7835 44.3528 0.0155314
68.9153 46.0152 0.0234893
69.806 41.79 0.0245262
72.4059 39.8023 0.016785
75 37.5 0
72.4891 37.5122 2
70.0424 39.6576 2
69.433 43.9078 2
67.6 41.4987 2
68.269 48.1072 2
66.7139 45.4417 2
70.1306 37.5218 3.97459
67.8361 39.513 3.97104
67.2272 43.4714 3.97279
65.5591 41.2117 3.97123
66.073 47.4199 3.97353
64.657 44.8514 3.97223
72.4137 35.2242 0.0167123
71.8049 30.6766 0.0148861
69.8421 33.2686 0.0241693
68.9693 29.0384 0.0228728
64.0165 10.9835 0
63.8915 14.3246 0.0103139
63.5179 17.4403 0.0161237
67.6148 24.9123 0.0222475
66.1984 27.6342 0.0263383
64.7625 23.8278 0.0243479
62.9146 20.3135 0.021423
62.1011 22.9373 0.0247101
60.6848 11.0957 0.00843827
57.6134 11.4411 0.0135562
70.0592 35.3924 2
69.4702 31.1497 2
67.6583 33.5907 2
66.7766 29.6219 2
62.3431 12.6531 2
62.2023 15.7772 2
61.821 18.6746 2
65.5284 25.6981 2
64.1505 28.2539 2
61.2268 21.3325 2
62.8632 24.6334 2
60.4343 23.72 2
59.2476 12.772 2
56.4065 13.1032 2
55.8752 10.2271 2
67.8723 35.5478 3.97147
67.2695 31.6217 3.97345
65.701 33.9268 3.97111
64.6681 30.1903 3.97264
63.5428 26.4123 3.97279
62.2618 28.7754 3.97271
60.7772 14.2171 3.98447
61.0513 25.3332 3.97319
60.6176 17.1182 3.98216
60.2306 19.8059 3.97822
59.6702 22.2491 3.97451
58.9864 24.3121 3.97553
54.0382 9.13124 3.98851
57.9121 14.323 3.98285
54.7877 12.0033 3.98458
55.314 14.635 3.98181
67.5109 50.1773 0.0228717
57.0256 66.7364 0.00680308
60.6696 63.9786 0.00816665
57.559 63.6963 0.0127938
65.7069 54.176 0.0193159
64.5432 51.3885 0.0253433
60.7752 60.9439 0.0154471
60.6631 58.1685 0.0199161
62.8275 55.0751 0.0203284
60.3354 55.796 0.0212978
55.0712 67.9334 2
59.2207 62.3724 2
55.8054 64.9146 2
56.3283 62.0981 2
65.3361 49.4105 2
63.7131 53.2982 2
62.4477 50.6572 2
59.3366 59.5668 2
61.0859 54.3189 2
59.295 57.0239 2
59.2505 55.1946 2
53.0428 69.0011 3.99372
53.9677 66.016 3.98958
57.8826 60.8778 3.98293
54.6848 63.2138 3.98548
55.2131 60.625 3.9822
63.1988 48.6646 3.97169
61.7493 52.5821 3.97536
60.2792 50.0257 3.97138
58.0219 58.2711 3.97938
59.3357 53.9576 3.97782
58.1328 55.8232 3.97571
50.1102 67.8595 3.99013
47.4642 66.586 3.98801
46.0572 69.1611 3.99045
48.1035 68.582 2
48.8028 70.7242 3.99404
50.9489 69.933 2
51.8506 72.1454 4
54.0858 71.1327 2
56.25 69.9759 0
55.1033 7.13851 3.99285
58.3339 6.31992 4
57.0594 8.33392 2
60.3286 7.74926 2
58.9219 9.65402 0.00776752
62.2254 9.30607 0
68.2691 48.1075 0.0233145
69.433 43.9079 0.0238345
66.714 45.4416 0.0267351
67.6001 41.4987 0.0279154
70.0424 39.6576 0.0255757
72.4892 37.5121 0.0168502
70.1305 37.5218 2
67.8361 39.5131 2
67.2272 43.4715 2
65.5591 41.2118 2
66.0728 47.4199 2
64.6569 44.8515 2
67.9326 37.5225 3.97129
65.7894 39.3716 3.97035
65.1801 43.0279 3.97164
63.7595 40.9319 3.97146
63.9705 46.72 3.97253
62.8124 44.2205 3.97217
70.0592 35.3922 0.0252509
69.4701 31.1496 0.0231139
67.6583 33.5907 0.0277274
66.7766 29.622 0.0261779
62.3427 12.6528 0.00932518
62.2022 15.7777 0.0154416
61.8206 18.6756 0.0195161
65.5286 25.6984 0.0256926
64.1505 28.2541 0.0272385
62.8634 24.6338 0.0261863
61.2265 21.3333 0.0238253
60.4342 23.7204 0.025353
59.2476 12.7726 0.0151164
56.4066 13.1041 0.0167565
55.8752 10.2278 0.012117
67.8723 35.5478 2
67.2697 31.6215 2
65.701 33.9267 2
64.6681 30.1901 2
60.7772 14.2166 2
60.6176 17.1173 2
60.231 19.8049 2
63.5428 26.412 2
62.2618 28.7752 2
59.6705 22.2486 2
61.0512 25.3329 2
58.9865 24.3118 2
57.9119 14.3223 2
55.3138 14.6341 2
54.0382 9.13066 2
54.7877 12.0024 2
65.8785 35.667 3.97052
65.191 32.1527 3.97193
64.2876 34.2496 3.97137
62.6009 30.6335 3.97258
61.6557 27.0693 3.97202
60.8551 29.1367 3.97276
59.3134 15.6599 3.98277
59.3368 25.7899 3.97524
59.1293 18.3445 3.98083
58.7482 20.843 3.97578
58.2933 23.0827 3.97334
57.9757 24.6564 3.97652
52.1128 8.14988 3.98888
53.0586 11.0098 3.98547
56.6786 15.7317 3.98194
53.8105 13.6698 3.98302
54.3781 15.9862 3.98154
55.071 67.9333 0.00652349
65.3362 49.4104 0.0266041
55.8055 64.9139 0.0110621
59.2207 62.3714 0.0146114
56.3283 62.0971 0.0161038
63.713 53.2975 0.0228679
62.4477 50.6569 0.0273616
59.3364 59.5657 0.0179367
59.2947 57.0232 0.0223425
61.0856 54.3181 0.0214014
59.2501 55.1939 0.0200722
53.0431 69.0012 2
53.9676 66.0166 2
57.8827 60.8787 2
54.6847 63.2147 2
55.2131 60.6262 2
63.1988 48.6648 2
61.7496 52.5827 2
60.2793 50.026 2
58.0222 58.2722 2
59.3362 53.9582 2
58.1332 55.8239 2
52.0712 67.0025 3.98993
52.9541 64.2241 3.98677
56.6507 59.498 3.98144
[...]
POINT_DATA 3012
SCALARS Jp_lamdaP float 4
LOOKUP_TABLE default
0.999998 1 1 0.999998
1 1 1 1
0.999999 1 1 0.999999
0.999983 1 1 0.999983
0.999995 1 1 0.999995
1 1 1 1
0.999866 1 1 0.999866
1 1 1 1
1 1 1 1
1 1 1 1
1 1 1 1
0.999955 1 1 0.999955
0.999964 1 1 0.999964
0.999984 1 1 0.999984
0.999999 1 1 0.999999
0.999986 1 1 0.999986
1 1 1 1
0.999997 1 1 0.999997
0.999868 1 1 0.999868
1 1 1 1
0.99998 1 1 0.99998
0.99999 1 1 0.99999
0.999775 1 1 0.999775
0.999839 1 1 0.999839
1 1 1 1
0.999895 1 1 0.999895
0.99963 1 1 0.99963
1 1 1 1
0.999996 1 1 0.999996
1 1 1 1
1 1 1 1
0.99996 1 1 0.99996
0.99999 1 1 0.99999
0.999999 1 1 0.999999
0.999891 1 1 0.999891
1 1 1 1
0.99994 1 1 0.99994
0.999973 1 1 0.999973
0.999685 1 1 0.999685
1 1 1 1
1 1 1 1
0.999991 1 1 0.999991
1 1 1 1
0.999978 1 1 0.999978
0.999763 1 1 0.999763
1 1 1 1
0.999841 1 1 0.999841
0.999987 1 1 0.999987
0.999997 1 1 0.999997
1 1 1 1
0.999869 1 1 0.999869
0.999984 1 1 0.999984
0.999982 1 1 0.999982
1 1 1 1
0.999992 1 1 0.999992
0.999777 1 1 0.999777
0.999896 1 1 0.999896
0.999841 1 1 0.999841
0.999621 1 1 0.999621
1 1 1 1
0.999975 1 1 0.999975
0.999798 1 1 0.999798
0.99976 1 1 0.99976
0.999808 1 1 0.999808
0.999416 1 1 0.999416
0.999539 1 1 0.999539
1 1 1 1
0.999932 1 1 0.999932
0.999695 1 1 0.999695
0.999345 1 1 0.999345
1 1 1 1
1 1 1 1
1 1 1 1
0.999965 1 1 0.999965
1 1 1 1
1 1 1 1
0.999894 1 1 0.999894
1 1 1 1
0.999945 1 1 0.999945
0.99998 1 1 0.99998
0.999683 1 1 0.999683
1 1 1 1
1 1 1 1
0.999862 1 1 0.999862
0.999916 1 1 0.999916
0.999495 1 1 0.999495
0.999992 1 1 0.999992
0.999654 1 1 0.999654
0.999716 1 1 0.999716
0.999484 1 1 0.999484
1 1 1 1
1 1 1 1
1 1 1 1
1 1 1 1
1 1 1 1
0.999987 1 1 0.999987
0.999781 1 1 0.999781
0.999993 1 1 0.999993
0.999839 1 1 0.999839
1 1 1 1
0.999734 1 1 0.999734
0.999818 1 1 0.999818
0.99924 1 1 0.99924
0.999856 1 1 0.999856
0.999321 1 1 0.999321
0.99997 1 1 0.99997
0.999984 1 1 0.999984
1 1 1 1
0.999994 1 1 0.999994
0.999779 1 1 0.999779
0.999844 1 1 0.999844
0.999898 1 1 0.999898
0.999612 1 1 0.999612
1 1 1 1
0.999978 1 1 0.999978
0.99975 1 1 0.99975
0.99976 1 1 0.99976
1 1 1 1
0.99995 1 1 0.99995
0.99981 1 1 0.99981
0.999399 1 1 0.999399
0.999686 1 1 0.999686
0.99955 1 1 0.99955
0.999346 1 1 0.999346
0.999748 1 1 0.999748
0.999752 1 1 0.999752
0.999295 1 1 0.999295
0.999355 1 1 0.999355
0.999456 1 1 0.999456
0.999138 1 1 0.999138
1 1 1 1
0.99929 1 1 0.99929
0.99999 1 1 0.99999
0.999715 1 1 0.999715
0.9994 1 1 0.9994
0.999229 1 1 0.999229
1 1 1 1
0.999825 1 1 0.999825
1 1 1 1
1 1 1 1
0.999899 1 1 0.999899
1 1 1 1
0.999986 1 1 0.999986
0.999948 1 1 0.999948
0.999682 1 1 0.999682
1 1 1 1
1 1 1 1
0.99987 1 1 0.99987
0.999923 1 1 0.999923
0.999497 1 1 0.999497
0.999995 1 1 0.999995
0.999654 1 1 0.999654
0.999716 1 1 0.999716
0.999477 1 1 0.999477
1 1 1 1
1 1 1 1
0.999847 1 1 0.999847
0.999416 1 1 0.999416
0.999587 1 1 0.999587
0.999256 1 1 0.999256
0.99976 1 1 0.99976
0.999448 1 1 0.999448
0.999503 1 1 0.999503
0.999398 1 1 0.999398
1 1 1 1
1 1 1 1
1 1 1 1
1 1 1 1
1 1 1 1
1 1 1 1
1 1 1 1
0.999836 1 1 0.999836
0.999776 1 1 0.999776
1 1 1 1
1 1 1 1
0.999736 1 1 0.999736
0.999817 1 1 0.999817
0.99924 1 1 0.99924
0.999851 1 1 0.999851
0.999322 1 1 0.999322
0.999725 1 1 0.999725
0.99919 1 1 0.99919
0.999287 1 1 0.999287
0.999007 1 1 0.999007
0.99936 1 1 0.99936
0.999096 1 1 0.999096
1 1 1 1
0.999981 1 1 0.999981
0.9997 1 1 0.9997
0.999761 1 1 0.999761
1 1 1 1
0.999968 1 1 0.999968
0.999813 1 1 0.999813
0.999382 1 1 0.999382
0.999562 1 1 0.999562
0.999676 1 1 0.999676
0.999348 1 1 0.999348
0.999746 1 1 0.999746
0.999752 1 1 0.999752
0.99926 1 1 0.99926
0.999368 1 1 0.999368
1 1 1 1
0.999986 1 1 0.999986
0.99973 1 1 0.99973
0.999458 1 1 0.999458
0.999117 1 1 0.999117
0.999396 1 1 0.999396
0.999299 1 1 0.999299
0.99923 1 1 0.99923
1 1 1 1
0.999825 1 1 0.999825
0.999201 1 1 0.999201
0.999337 1 1 0.999337
0.999049 1 1 0.999049
0.999059 1 1 0.999059
0.999226 1 1 0.999226
0.999036 1 1 0.999036
0.999998 1 1 0.999998
0.999177 1 1 0.999177
0.999742 1 1 0.999742
0.99947 1 1 0.99947
0.999282 1 1 0.999282
0.999191 1 1 0.999191
0.999779 1 1 0.999779
0.999883 1 1 0.999883
0.999575 1 1 0.999575
0.999871 1 1 0.999871
1 1 1 1
1 1 1 1
0.999929 1 1 0.999929
0.999499 1 1 0.999499
0.999998 1 1 0.999998
0.999715 1 1 0.999715
0.999655 1 1 0.999655
0.99947 1 1 0.99947
1 1 1 1
1 1 1 1
0.999847 1 1 0.999847
0.999417 1 1 0.999417
0.99959 1 1 0.99959
0.999256 1 1 0.999256
0.99976 1 1 0.99976
0.999455 1 1 0.999455
0.999502 1 1 0.999502
0.999389 1 1 0.999389
1 1 1 1
0.999801 1 1 0.999801
0.999897 1 1 0.999897
0.999613 1 1 0.999613
0.999178 1 1 0.999178
0.99937 1 1 0.99937
0.999137 1 1 0.999137
0.999546 1 1 0.999546
0.999362 1 1 0.999362
0.99937 1 1 0.99937
0.999324 1 1 0.999324
0.999977 1 1 0.999977
1 1 1 1
1 1 1 1
1 1 1 1
1 1 1 1
1 1 1 1
1 1 1 1
1 1 1 1
1 1 1 1
0.999853 1 1 0.999853
0.999812 1 1 0.999812
0.999322 1 1 0.999322
0.99924 1 1 0.99924
0.999738 1 1 0.999738
1 1 1 1
0.999724 1 1 0.999724
0.999191 1 1 0.999191
0.999287 1 1 0.999287
0.999006 1 1 0.999006
0.999361 1 1 0.999361
0.999096 1 1 0.999096
0.999178 1 1 0.999178
0.998955 1 1 0.998955
0.999056 1 1 0.999056
0.998975 1.00004 1 0.998939
0.999133 1 1 0.999133
0.999019 1 1 0.999019
0.999743 1 1 0.999743
0.999753 1 1 0.999753
0.999225 1 1 0.999225
0.999381 1 1 0.999381
1 1 1 1
0.999982 1 1 0.999982
0.999745 1 1 0.999745
0.99946 1 1 0.99946
0.999095 1 1 0.999095
0.999308 1 1 0.999308
0.999393 1 1 0.999393
0.999232 1 1 0.999232
0.999999 1 1 0.999999
0.999825 1 1 0.999825
0.999189 1 1 0.999189
0.999337 1 1 0.999337
0.99904 1 1 0.99904
0.999081 1 1 0.999081
0.999996 1 1 0.999996
0.999742 1 1 0.999742
0.999485 1 1 0.999485
0.999226 1 1 0.999226
0.999031 1 1 0.999031
0.999266 1 1 0.999266
0.999177 1 1 0.999177
0.999191 1 1 0.999191
0.99978 1 1 0.99978
0.999572 1 1 0.999572
0.999882 1 1 0.999882
0.999003 1 1 0.999003
0.999069 1 1 0.999069
0.998931 1 1 0.998931
0.99898 1 1 0.99898
0.999111 1 1 0.999111
0.999035 1 1 0.999035
0.999758 1 1 0.999758
0.999152 1 1 0.999152
0.99955 1 1 0.99955
0.999334 1 1 0.999334
0.999182 1 1 0.999182
0.999224 1 1 0.999224
0.999929 1 1 0.999929
0.99957 1 1 0.99957
0.999593 1 1 0.999593
0.99948 1 1 0.99948
0.999418 1 1 0.999418
1 1 1 1
1 1 1 1
0.999848 1 1 0.999848
0.999592 1 1 0.999592
0.999256 1 1 0.999256
0.99976 1 1 0.99976
0.9995 1 1 0.9995
0.999462 1 1 0.999462
0.99938 1 1 0.99938
1 1 1 1
0.999801 1 1 0.999801
0.999899 1 1 0.999899
0.999612 1 1 0.999612
0.999177 1 1 0.999177
0.999371 1 1 0.999371
0.999137 1 1 0.999137
0.999547 1 1 0.999547
0.999371 1 1 0.999371
0.999365 1 1 0.999365
0.999349 1 1 0.999349
1 1 1 1
0.999933 1 1 0.999933
0.999583 1 1 0.999583
0.999656 1 1 0.999656
0.99948 1 1 0.99948
0.999072 1 1 0.999072
0.99926 1 1 0.99926
0.999093 1 1 0.999093
0.9994 1 1 0.9994
0.999308 1 1 0.999308
0.999229 1 1 0.999229
0.999967 1 1 0.999967
0.999803 1 1 0.999803
0.999985 1 1 0.999985
0.999979 1 1 0.999979
1 1 1 1
1 1 1 1
1 1 1 1
1 1 1 1
1 1 1 1
1 1 1 1
1 1 1 1
1 1 1 1
1 1 1 1
1 1 1 1
1 1 1 1
0.999361 1 1 0.999361
0.999287 1 1 0.999287
0.999096 1 1 0.999096
0.999006 1 1 0.999006
0.999191 1 1 0.999191
0.999723 1 1 0.999723
0.999177 1 1 0.999177
0.998955 1 1 0.998955
0.999056 1 1 0.999056
0.998954 1.00002 1 0.998935
0.999132 1 1 0.999132
0.999019 1 1 0.999019
0.99894 1 1 0.99894
0.999455 1.00057 1 0.998888
0.998977 1 1 0.998977
0.99964 1.00072 1 0.998925
0.999048 1 1 0.999048
0.999077 1.00003 1 0.999045
0.999178 1 1 0.999178
0.999337 1 1 0.999337
0.999031 1 1 0.999031
0.999103 1 1 0.999103
0.999994 1 1 0.999994
0.999742 1 1 0.999742
0.9995 1 1 0.9995
0.999225 1 1 0.999225
0.999026 1 1 0.999026
0.999178 1 1 0.999178
0.99925 1 1 0.99925
0.99919 1 1 0.99919
0.999781 1 1 0.999781
0.999568 1 1 0.999568
0.999881 1 1 0.999881
0.998985 1 1 0.998985
0.999069 1 1 0.999069
0.998924 1 1 0.998922
0.998984 1 1 0.998984
0.999758 1 1 0.999758
0.999548 1 1 0.999548
0.999351 1 1 0.999351
0.999118 1 1 0.999118
0.99905 1.00001 1 0.999041
0.999169 1 1 0.999169
0.999152 1 1 0.999152
0.99923 1 1 0.99923
0.999572 1 1 0.999572
0.999469 1 1 0.999469
0.999927 1 1 0.999927
0.9996 1 1 0.9996
0.998966 1.00008 1 0.998883
0.998955 1 1 0.998955
0.999135 1.00025 1 0.998882
0.998965 1 1 0.998965
0.999208 1.00011 1 0.999102
0.999146 1.00009 1 0.999058
0.999571 1 1 0.999571
0.99922 1 1 0.99922
0.999429 1 1 0.999429
0.999221 1 1 0.999221
0.999113 1 1 0.999113
0.999228 1 1 0.999228
0.999952 1 1 0.999952
0.999648 1 1 0.999648
0.999481 1 1 0.999481
0.999475 1 1 0.999475
0.999433 1 1 0.999433
1 1 1 1
0.999175 1 1 0.999175
0.999901 1 1 0.999901
0.9998 1 1 0.9998
0.999611 1 1 0.999611
0.999373 1 1 0.999373
0.999137 1 1 0.999137
0.999547 1 1 0.999547
0.999361 1 1 0.999361
0.99938 1 1 0.99938
0.999374 1 1 0.999374
1 1 1 1
0.999936 1 1 0.999936
0.999583 1 1 0.999583
0.999656 1 1 0.999656
0.999474 1 1 0.999474
0.99907 1 1 0.99907
0.999261 1 1 0.999261
0.999089 1 1 0.999089
0.999402 1 1 0.999402
0.999315 1 1 0.999315
0.99924 1 1 0.99924
0.999953 1 1 0.999953
0.999703 1 1 0.999703
0.999444 1 1 0.999444
0.999509 1 1 0.999509
0.999407 1 1 0.999407
0.999045 1 1 0.999045
0.999209 1 1 0.999209
0.999154 1 1 0.999154
0.999528 1 1.00026 0.999266
0.999162 1 1 0.999162
0.99997 1 1 0.99997
0.999753 1 1 0.999753
0.99979 1 1 0.99979
0.99967 1 1 0.99967
0.999813 1 1 0.999813
0.99999 1 1 0.99999
0.999986 1 1 0.999986
1 1 1 1
0.999982 1 1 0.999982
1 1 1 1
1 1 1 1
1 1 1 1
1 1 1 1
1 1 1 1
1 1 1 1
1 1 1 1
1 1 1 1
1 1 1 1
1 1 1 1
1 1 1 1
0.999131 1 1 0.999131
0.999057 1 1 0.999057
0.999019 1 1 0.999019
0.998934 1 1 0.99893
0.998956 1 1 0.998956
0.999177 1 1 0.999177
0.998941 1 1 0.998941
0.999455 1.00057 1 0.998881
0.998978 1 1 0.998978
0.999536 1.00061 1 0.998924
0.999046 1 1 0.999046
0.999069 1.00002 1 0.999044
0.99927 1.00041 1 0.998859
1.00119 1.00232 1 0.998871
0.99931 1.00034 1 0.998974
1.00043 1.00151 1 0.998918
0.999052 1 1 0.999052
0.999666 1.0006 1 0.999067
0.998966 1 1 0.998966
0.999069 1 1 0.999069
0.998918 1.00001 1 0.998912
0.998989 1 1 0.998989
0.999759 1 1 0.999759
0.999546 1 1 0.999546
0.999368 1 1 0.999368
0.999126 1 1 0.999126
0.999057 1.00001 1 0.999048
0.999152 1 1 0.999152
0.999157 1 1 0.999157
0.999237 1 1 0.999237
0.999574 1 1 0.999574
0.999458 1 1 0.999458
0.999924 1 1 0.999924
0.999608 1 1 0.999608
0.999065 1.00018 1 0.998884
0.998957 1 1 0.998957
0.999031 1.00015 1 0.998884
0.998967 1 1 0.998967
0.999571 1 1 0.999571
0.999443 1 1 0.999443
0.999219 1 1 0.999219
0.999185 1.00009 1 0.999098
0.999148 1.00006 1 0.999087
0.999106 1 1 0.999106
0.999224 1 1 0.999221
0.999248 1 1 0.999248
0.999481 1 1 0.999481
0.999429 1 1 0.999429
0.999473 1 1 0.999473
0.999933 1 1 0.999933
0.999655 1 1 0.999655
1.00012 1.00127 1 0.998847
0.999199 1.00032 1 0.99888
0.999257 1.00028 1 0.998981
0.999282 1.00014 1 0.999142
0.999487 1 1 0.999487
0.999392 1.00012 1 0.999277
0.999346 1 1 0.999346
0.999142 1 1.00007 0.999072
0.999052 1 1 0.999052
0.999934 1 1 0.999934
0.999728 1 1 0.999728
0.999526 1 1 0.999526
0.999451 1 1 0.999451
0.999384 1 1 0.999384
0.999397 1 1 0.999397
1 1 1 1
0.999938 1 1 0.999938
0.999068 1 1 0.999068
0.999655 1 1 0.999655
0.999583 1 1 0.999583
0.999468 1 1 0.999468
0.999262 1 1 0.999262
0.999085 1 1 0.999085
0.999404 1 1 0.999404
0.999252 1 1 0.999252
0.999321 1 1 0.999321
0.999956 1 1 0.999956
0.999703 1 1 0.999703
0.999451 1 1 0.999451
0.999508 1 1 0.999508
0.999397 1 1 0.999397
0.999043 1 1 0.999043
0.999205 1 1 0.999205
0.999162 1 1 0.999162
0.999391 1 1.00013 0.99926
0.999142 1 1 0.999142
0.999743 1 1 0.999743
0.999528 1 1 0.999528
0.999608 1 1.00026 0.999346
0.999393 1 1 0.999393
0.999337 1 1 0.999337
0.999528 1.00035 1 0.999181
0.999117 1 1 0.999117
0.999235 1.00009 1 0.999147
1.0001 1 1.00093 0.999176
0.998988 1 1 0.998988
0.999973 1 1 0.999973
0.999762 1 1 0.999762
0.999602 1 1 0.999602
0.999777 1 1 0.999777
0.999813 1 1 0.999813
0.999651 1 1 0.999651
0.999553 1 1 0.999553
0.999647 1 1 0.999647
0.999823 1 1 0.999823
0.999991 1 1 0.999991
0.99999 1 1 0.99999
1 1 1 1
0.999988 1 1 0.999988
1 1 1 1
1 1 1 1
1 1 1 1
1 1 1 1
1 1 1 1
1 1 1 1
1 1 1 1
1 1 1 1
1 1 1 1
1 1 1 1
1 1 1 1
0.999045 1 1 0.999045
0.998978 1 1 0.998978
0.999061 1.00002 1 0.999043
0.999424 1.0005 1 0.998923
0.999453 1.00058 1 0.998874
0.998941 1 1 0.998941
0.999367 1.00051 1 0.998857
1.00107 1.0022 1 0.998872
0.999226 1.00026 1 0.998966
1.0005 1.00159 1 0.998913
0.999052 1 1 0.999052
0.999489 1.00041 1 0.999083
1.00161 1.00276 1 0.998844
1.00222 1.00333 1 0.998889
1.00072 1.00175 1 0.998975
0.999782 1.00065 1 0.999135
0.999156 1.00027 1 0.998884
0.99896 1 1 0.99896
0.998933 1.00005 1 0.998886
0.998968 1 1 0.998968
0.999571 1 1 0.999571
0.999457 1 1 0.999457
0.999218 1 1 0.999218
0.999163 1.00007 1 0.999094
0.999145 1.00003 1 0.999116
0.999226 1 1 0.999223
0.999099 1 1 0.999099
0.999267 1 1 0.999267
0.999482 1 1 0.999482
0.999426 1 1 0.999426
0.99947 1 1 0.99947
0.999914 1 1 0.999914
0.999663 1 1 0.999663
1.00001 1.00116 1 0.99885
0.999334 1.00045 1 0.998885
0.999306 1.00031 1 0.998992
0.999486 1 1 0.999486
0.999363 1 1 0.999363
0.99924 1 1.00017 0.999069
0.999298 1.00017 1 0.999132
0.999081 1 1 0.999081
0.999311 1.00003 1 0.999277
0.999934 1 1 0.999934
0.999451 1 1 0.999451
0.999406 1 1 0.999406
0.999382 1 1 0.999382
0.999532 1 1 0.999532
0.999714 1 1 0.999714
1.00102 1.00217 1 0.998849
1.00031 1.00143 1 0.998875
0.999971 1.00094 1 0.999028
1.00043 1.00123 1 0.999203
0.999437 1 1 0.999437
0.999138 1.00001 1 0.999123
0.9993 1 1.00012 0.999182
0.999484 1 1.00053 0.998959
0.99995 1 1 0.99995
0.999769 1 1 0.999769
0.999579 1 1 0.999579
0.999387 1 1 0.999387
0.999407 1 1 0.999407
0.999344 1 1 0.999344
0.99996 1 1 0.99996
0.999704 1 1 0.999704
0.999042 1 1 0.999042
0.999507 1 1 0.999507
0.999459 1 1 0.999459
0.999387 1 1 0.999387
0.999201 1 1 0.999201
0.999171 1 1 0.999171
0.999256 1 1 0.999253
0.999121 1 1 0.999121
0.999743 1 1 0.999743
0.999534 1 1 0.999534
0.999484 1 1.00013 0.999359
0.999399 1 1 0.999399
0.999341 1 1 0.999341
0.99958 1.0004 1 0.999179
0.999122 1 1 0.999122
0.999267 1.00006 1 0.999209
1.00018 1 1.00101 0.999167
0.998988 1 1.00003 0.998958
0.999572 1 1 0.999572
0.999398 1 1 0.999398
1.00018 1 1.00092 0.99926
0.999289 1 1 0.999289
1.00221 1.00305 1 0.999159
1.001 1.0019 0.999872 0.999229
0.999039 1.00008 1 0.998962
1.0014 1 1.00244 0.998962
0.999772 1 1 0.999772
0.999611 1 1 0.999611
0.999509 1 1 0.999509
0.999813 1 1 0.999813
0.999632 1 1 0.999632
0.999823 1 1 0.999823
0.999538 1 1 0.999538
0.999654 1 1 0.999654
0.999458 1 1 0.999458
0.999539 1 1 0.999539
0.999657 1 1 0.999657
0.999827 1 1 0.999827
0.999991 1 1 0.999991
0.999991 1 1 0.999991
1 1 1 1
0.999991 1 1 0.999991
1 1 1 1
1 1 1 1
1 1 1 1
1 1 1 1
1 1 1 1
1 1 1 1
1 1 1 1
1 1 1 1
1 1 1 1
1 1 1 1
1 1 1 1
0.999053 1 1 0.999053
0.999147 1.00019 1 0.998959
0.999324 1.00022 1 0.9991
1.00058 1.00167 1 0.998908
1.00093 1.00206 1 0.998874
0.999471 1.00062 1 0.998854
1.00137 1.00253 1 0.998849
1.00213 1.00324 1 0.998889
1.00077 1.00179 1 0.998981
0.999886 1.00076 1 0.99913
1.00295 1.00409 1 0.998867
1.00328 1.00434 1 0.998945
1.00179 1.00274 1 0.999053
0.999914 1.00106 1 0.998854
0.999463 1.00057 1 0.99889
0.999358 1.00036 1 0.999003
0.999484 1 1 0.999484
0.999379 1 1 0.999379
0.999376 1 1.00031 0.999065
0.999375 1.00025 1 0.999122
0.999277 1 1 0.999277
0.999111 1 1 0.999111
0.99945 1 1 0.99945
0.999414 1 1 0.999414
0.99938 1 1 0.99938
0.999935 1 1 0.999935
0.999538 1 1 0.999538
0.9997 1 1 0.9997
1.00136 1.00252 1 0.99885
1.00007 1.0012 1 0.998873
0.999965 1.00095 1 0.999015
0.999434 1 1 0.999434
0.999298 1 1.00009 0.99921
0.999534 1 1.00057 0.998964
1.00104 1.00182 1 0.999219
0.999148 1.00003 1 0.99912
0.999964 1 1 0.999964
0.999769 1 1 0.999769
0.999406 1 1 0.999406
0.999354 1 1 0.999354
0.999391 1 1 0.999391
0.999568 1 1 0.999568
1.00243 1.00356 1 0.998884
1.00189 1.00299 1 0.998899
1.00306 1.00401 0.999905 0.999151
1.00229 1.00306 1 0.999242
0.999357 1 1 0.999357
1.00025 1 1.00136 0.998893
0.999969 1 1.0009 0.999067
0.999991 1 1 0.999991
0.999849 1 1 0.999849
0.999771 1 1 0.999771
0.999595 1 1 0.999595
0.999437 1 1 0.999437
0.99929 1 1 0.99929
0.999399 1 1 0.999399
0.999548 1 1.00021 0.99934
0.999744 1 1 0.999744
0.999539 1 1 0.999539
0.999582 1.0004 1 0.999178
0.999404 1 1 0.999404
0.999371 1 1 0.999371
0.999345 1 1 0.999345
0.999126 1 1 0.999126
0.999271 1 1 0.999271
1.00028 1 1.00113 0.999158
0.998929 1 1 0.998929
0.999566 1 1 0.999566
0.999407 1 1 0.999407
1.0003 1 1.00103 0.999271
0.999298 1 1 0.999298
1.00221 1.00306 1 0.999149
1.00076 1.00158 0.999949 0.999228
0.999184 1.0002 1 0.998989
1.00097 1 1.00202 0.998948
0.99947 1 1 0.99947
1.00218 1.00311 1 0.999076
0.999312 1 1 0.999312
1.0001 1 1.00094 0.99916
1.00528 1.00635 0.999722 0.999214
1.0012 1.00225 1 0.998959
1.00168 1 1.00283 0.998856
0.99962 1 1 0.99962
0.999509 1 1 0.999509
0.999421 1 1 0.999421
0.999823 1 1 0.999823
0.999661 1 1 0.999661
0.999524 1 1 0.999524
0.999827 1 1 0.999827
0.999657 1 1 0.999657
0.999447 1 1 0.999447
0.999553 1 1 0.999553
0.999389 1 1 0.999389
0.999446 1 1 0.999446
0.999567 1 1 0.999567
0.999676 1 1 0.999676
0.999825 1 1 0.999825
0.999989 1 1 0.999989
0.99999 1 1 0.99999
1 1 1 1
0.999991 1 1 0.999991
1 1 1 1
1 1 1 1
1 1 1 1
1 1 1 1
1 1 1 1
0.999997 1 1 0.999997
1 1 1 1
1 1 1 1
1 1 1 1
1 1 1 1
1 1 1 1
1 1 1 1
0.999993 1.00087 1 0.999125
1.0008 1.00182 1 0.998988
1.00204 1.00315 1 0.998889
1.00115 1.0023 1 0.998854
1.00294 1.00407 1 0.998872
1.00354 1.00461 1 0.998936
1.00201 1.00294 1 0.999067
1.00295 1.00403 1 0.998924
1.00418 1.0052 1 0.998988
1.0018 1.0027 1 0.999104
1.0017 1.00285 1 0.998852
0.999822 1.00095 1 0.998871
0.999943 1.00094 1 0.999003
0.999431 1 1 0.999431
0.999238 1 1 0.999238
0.99949 1 1.00052 0.998969
1.00159 1.00236 1 0.999236
0.999117 1 1 0.999117
0.999405 1 1 0.999405
0.999363 1 1 0.999363
0.999395 1 1 0.999395
0.999978 1 1 0.999978
0.99977 1 1 0.99977
0.999558 1 1 0.999558
1.0021 1.00322 1 0.99889
0.999989 1 1 0.999989
0.999839 1 1 0.999839
1.00189 1.00299 1 0.998899
1.00354 1.00441 1 0.999127
0.999373 1 1 0.999373
1.00035 1 1.00131 0.999042
0.999682 1 1.00078 0.9989
1.00192 1.00268 1 0.999241
0.999799 1 1 0.999799
0.999595 1 1 0.999595
0.999388 1 1 0.999388
0.999497 1 1.00012 0.999378
0.999273 1 1 0.999273
0.99944 1 1 0.99944
1.0032 1.00425 1 0.998948
1.00463 1.00566 1 0.998983
1.00523 1.00632 0.999601 0.999313
0.99939 1.00035 1 0.999043
1.00009 1 1.00078 0.999318
1.00279 1 1.00391 0.998885
0.99985 1 1 0.99985
0.999823 1 1 0.999823
0.999714 1 1 0.999714
0.9996 1 1 0.9996
0.999482 1 1 0.999482
0.999321 1 1 0.999321
0.999381 1 1.00018 0.999202
0.999386 1 1 0.999386
0.999561 1 1 0.999561
0.999415 1 1 0.999415
1.00237 1.00323 1 0.99914
1.00065 1.00142 1 0.999228
0.999307 1 1 0.999307
1.00037 1 1.00109 0.999282
0.999367 1.00032 1.00004 0.999016
1.0006 1 1.00166 0.998935
0.999468 1 1 0.999468
1.00257 1.00348 1 0.999093
0.999313 1 1 0.999313
1.00028 1 1.00114 0.999145
1.00445 1.00551 0.99974 0.999204
1.00161 1.00265 1 0.998967
1.00178 1 1.00292 0.998859
0.99936 1 1 0.99936
1.01314 1.01482 0.999166 0.999176
0.999233 1 1 0.999233
1.00169 1 1.00268 0.999008
1.00156 1.00534 0.997225 0.99901
1.00149 1.00046 1.00221 0.998819
1.00847 1.01014 0.999197 0.999143
0.999509 1 1 0.999509
0.999421 1 1 0.999421
0.999359 1 1 0.999359
0.999827 1 1 0.999827
0.999656 1 1 0.999656
0.999568 1 1 0.999568
0.999435 1 1 0.999435
0.999825 1 1 0.999825
0.999667 1 1 0.999667
0.999385 1 1 0.999385
0.999566 1 1 0.999566
0.999458 1 1 0.999458
0.99937 1 1 0.99937
0.999492 1 1 0.999492
0.999575 1 1 0.999575
0.999652 1 1 0.999652
0.999798 1 1 0.999798
0.999695 1 1 0.999695
0.999798 1 1 0.999798
0.999988 1 1 0.999988
0.999989 1 1 0.999989
1 1 1 1
0.99999 1 1 0.99999
1 1 1 1
1 1 1 1
1 1 1 1
1 1 1 1
1 1 1 1
1 1 1 1
0.999996 1 1 0.999996
1 1 1 1
1 1 1 1
1 1 1 1
1 1 1 1
1 1 1 1
1 1 1 1
1.00221 1.00313 1 0.999081
1.00381 1.00489 1 0.998927
1.00294 1.00406 1 0.998878
1.00326 1.00434 1 0.998924
1.00381 1.00482 1 0.998994
1.00177 1.00266 1 0.999112
1.00373 1.0047 1 0.999027
1.00925 1.01469 0.995426 0.999211
1.01427 1.01566 0.999389 0.99924
0.999886 1 1 0.999886
1.00182 1.00292 1 0.998897
1.00179 1.0029 1 0.998899