# vtk DataFile Version 2.0
Wound Healing Simulation
ASCII
DATASET UNSTRUCTURED_GRID
POINTS 3012 float
69.9759 18.75 4
67.2507 60.3285 4
69.976 18.75 2
73.0099 25.446 4
71.1327 20.9142 4
68.6801 16.6661 4
67.8226 19.9265 3.9758
67.2507 60.3286 2
71.1327 54.0858 4
68.6801 58.3339 4
65.6939 62.2254 4
65.3095 58.9997 3.97496
74.6784 42.3946 4
73.7221 47.2057 4
69.9759 18.75 0
73.0099 25.446 2
68.6801 16.6661 2
71.1327 20.9142 2
67.8232 19.93 2
74.6792 32.6053 4
73.7222 27.7943 4
72.1454 23.1494 4
70.6119 26.2216 3.97564
68.883 21.9581 3.97616
67.2507 14.6715 4
66.634 17.9731 3.97454
65.7889 21.0288 3.96439
67.2507 60.3285 0
71.1327 54.0858 2
68.6801 58.3339 2
65.694 62.2255 2
65.3107 58.9948 2
72.1454 51.8506 4
69.9759 56.25 4
68.8335 53.1133 3.97558
64.0165 64.0165 4
66.6078 57.1327 3.97539
63.8826 60.7636 3.97461
63.4933 57.7644 3.96602
60.3285 67.2507 4
74.6792 42.3947 2
73.7222 47.2057 2
74.9194 39.9526 4
74.2788 44.8158 4
72.1666 42.0857 3.97692
73.0099 49.554 4
71.2471 46.598 3.97547
73.0099 25.446 0
71.1327 20.9142 0
68.6801 16.6661 0
67.8226 19.9265 0.0241977
74.6792 32.6053 2
73.7222 27.7943 2
67.2508 14.6715 2
72.1455 23.1494 2
70.6116 26.2222 2
66.6349 17.9776 2
68.8831 21.9605 2
65.7867 21.0304 2
74.9197 35.0474 4
74.2794 30.1841 4
72.1833 32.9442 3.97715
71.2763 28.4322 3.97583
69.8131 24.0598 3.97606
68.3405 26.9543 3.96468
66.7545 22.9361 3.96426
65.694 12.7746 4
65.3202 16.1056 3.97345
64.7053 19.2005 3.96474
63.8087 22.066 3.96439
71.1327 54.0858 0
65.6939 62.2254 0
68.6801 58.3339 0
65.3095 58.9997 0.0250384
72.1455 51.8506 2
69.9759 56.25 2
68.8336 53.1109 2
64.0165 64.0165 2
66.6087 57.1284 2
63.8843 60.7584 2
63.4918 57.764 2
62.2254 65.694 4
58.8919 65.4131 3.98401
69.7663 50.9892 3.9753
67.7807 55.1671 3.9757
66.6398 52.207 3.96439
62.3327 62.4244 3.9776
64.6528 56.0271 3.96549
62.1962 59.3919 3.96603
61.7799 56.6558 3.96202
58.3339 68.6801 4
60.3285 67.2508 2
73.7221 47.2057 0
74.6784 42.3946 0
74.9197 39.9526 2
74.2794 44.8159 2
72.1659 42.0854 2
73.0099 49.554 2
71.2468 46.5976 2
75 37.5 4
72.404 39.8025 3.97784
71.7807 44.3529 3.97655
69.7992 41.79 3.96712
70.5727 48.8136 3.97504
68.906 46.0141 3.96557
74.6792 32.6053 0
73.7222 27.7943 0
67.2507 14.6715 0
72.1454 23.1494 0
70.6119 26.2216 0.0243573
68.883 21.9581 0.0238401
66.634 17.9731 0.0254632
65.7889 21.0288 0.0356064
74.9197 35.0474 2
74.2794 30.1841 2
72.1826 32.9445 2
71.2759 28.4327 2
65.694 12.7745 2
65.3216 16.1109 2
69.813 24.0611 2
68.3401 26.9554 2
64.7037 19.2015 2
66.7542 22.9374 2
63.808 22.0668 2
72.4119 35.2249 3.97789
71.8023 30.6772 3.9768
69.8353 33.271 3.96702
68.9604 29.0411 3.96546
67.6045 24.9146 3.96438
66.1012 27.6588 3.96806
64.0165 10.9835 4
64.6694 23.8592 3.96571
63.8862 14.3303 3.97412
63.5046 17.4565 3.96534
62.8342 20.3534 3.96256
61.9289 23.0051 3.96818
60.6812 11.1014 3.97894
57.6062 11.4717 3.96986
72.1454 51.8506 0
69.9759 56.25 0
68.8335 53.1133 0.024421
64.0165 64.0165 0
63.8826 60.7636 0.0253888
66.6078 57.1327 0.024607
63.4933 57.7644 0.0339781
62.2255 65.694 2
58.8942 65.4096 2
69.766 50.9878 2
67.7812 55.1637 2
66.6389 52.2058 2
62.3352 62.4199 2
64.6516 56.0265 2
62.1939 59.3916 2
61.7803 56.6562 2
60.6661 63.9737 3.98022
57.0231 66.7339 3.98729
57.5531 63.677 3.97136
67.4978 50.1748 3.96444
65.694 54.1706 3.96471
64.4369 51.3559 3.96583
60.7676 60.9185 3.9687
62.7564 55.0413 3.96356
60.6306 58.1324 3.9609
60.233 55.7376 3.96462
56.25 69.9759 4
58.3339 68.6801 2
60.3285 67.2507 0
58.9185 9.65915 3.98037
62.2254 9.30607 4
73.0099 49.554 0
74.2788 44.8158 0
71.2471 46.598 0.0245347
72.1666 42.0857 0.023078
74.9194 39.9526 0
75 37.5 2
72.4038 39.8024 2
71.7805 44.3523 2
69.7984 41.7896 2
70.5722 48.813 2
68.9057 46.0133 2
72.4874 37.5126 3.97747
70.0368 39.6583 3.9675
69.425 43.9072 3.96649
67.5055 41.4897 3.97166
68.2581 48.1057 3.96485
66.6016 45.4208 3.96994
74.9197 35.0474 0
74.2794 30.1841 0
72.1833 32.9442 0.022855
71.2763 28.4322 0.0241727
65.694 12.7746 0
65.3202 16.1056 0.0265518
69.8131 24.0598 0.0239447
68.3405 26.9543 0.0353191
66.7545 22.9361 0.0357433
64.7053 19.2005 0.0352589
63.8087 22.066 0.035606
72.4117 35.2249 2
71.8021 30.6778 2
69.8346 33.2716 2
68.9602 29.042 2
64.0165 10.9835 2
63.8883 14.3355 2
63.5031 17.4576 2
67.6041 24.9159 2
66.1004 27.6595 2
62.8338 20.3539 2
64.6691 23.86 2
61.9278 23.0061 2
60.6837 11.1056 2
57.6072 11.4644 2
70.0536 35.394 3.96749
69.4621 31.1523 3.9662
67.5719 33.6021 3.97093
66.6776 29.6435 3.96882
65.4317 25.7263 3.96681
63.9412 28.3043 3.97453
62.3381 12.6588 3.97686
62.6757 24.6963 3.97041
62.191 15.8004 3.96646
61.7556 18.7193 3.96122
61.0646 21.4074 3.96534
60.1792 23.8187 3.9722
59.2399 12.809 3.9677
55.8692 10.2534 3.97317
56.3943 13.1689 3.96873
69.7663 50.9892 0.0246956
62.2254 65.694 0
58.8919 65.4131 0.0159912
67.7807 55.1671 0.0242994
66.6398 52.207 0.0356139
62.3327 62.4244 0.0223985
62.1962 59.3919 0.0339675
64.6528 56.0271 0.0345146
61.7799 56.6558 0.0379774
60.6684 63.9707 2
57.0254 66.7323 2
57.5542 63.6806 2
67.4983 50.1739 2
65.6923 54.1696 2
64.4368 51.3555 2
60.7666 60.9201 2
62.7567 55.0415 2
60.6344 58.134 2
60.2322 55.7375 2
55.0689 67.9312 3.98841
59.2132 62.3379 3.96931
55.8015 64.902 3.976
56.3165 62.046 3.97005
65.2208 49.3804 3.96715
63.62 53.2634 3.96449
62.2317 50.593 3.96947
59.3186 59.5277 3.96299
60.939 54.2558 3.96685
59.2059 56.9605 3.96193
59.101 55.1189 3.96756
48.0999 68.5748 3.98464
50.9467 69.9313 3.99009
54.0858 71.1327 4
56.25 69.976 2
58.3339 68.6801 0
57.0557 8.33853 3.98236
60.3285 7.74928 4
58.9212 9.66335 2
62.2255 9.30602 2
70.5727 48.8136 0.0249557
71.7807 44.3529 0.0234547
68.906 46.0141 0.0344254
69.7992 41.79 0.0328812
72.404 39.8025 0.0221557
75 37.5 0
72.4867 37.5125 2
70.0365 39.6582 2
69.4247 43.9068 2
67.5039 41.4895 2
68.2587 48.105 2
66.5992 45.4203 2
70.1249 37.523 3.96754
67.7512 39.5096 3.97209
67.1206 43.4564 3.97062
65.3397 41.1898 3.9769
65.9557 47.3938 3.96874
64.4138 44.8078 3.97535
72.4119 35.2249 0.0221078
71.8023 30.6772 0.0232
69.8353 33.271 0.032975
68.9604 29.0411 0.0345424
64.0165 10.9835 0
63.8862 14.3303 0.025882
63.5046 17.4565 0.0346586
67.6045 24.9146 0.035617
66.1012 27.6588 0.0319441
64.6694 23.8592 0.0342903
62.8342 20.3534 0.0374399
61.9289 23.0051 0.031823
60.6812 11.1014 0.0210632
57.6062 11.4717 0.0301359
70.0533 35.3944 2
69.4618 31.153 2
67.5703 33.6025 2
66.6762 29.6441 2
62.3407 12.6637 2
62.1894 15.8012 2
61.7556 18.7193 2
65.431 25.7272 2
63.939 28.3054 2
61.0635 21.4083 2
62.6746 24.6973 2
60.178 23.8198 2
59.2405 12.8089 2
56.3958 13.1662 2
55.8711 10.2514 2
67.7902 35.5542 3.97165
67.1784 31.6383 3.96987
65.4959 33.949 3.97703
64.455 30.2335 3.97582
63.3429 26.469 3.97253
61.9491 28.8541 3.97622
60.7685 14.246 3.96764
60.7758 25.4253 3.97471
60.5776 17.163 3.96088
60.0807 19.8863 3.96211
59.4249 22.3554 3.96795
58.6645 24.4379 3.9745
54.0343 9.14697 3.97372
57.8976 14.3761 3.96634
54.7765 12.0634 3.96914
55.2944 14.7142 3.96659
67.4978 50.1748 0.035562
57.0231 66.7339 0.0127094
60.6661 63.9737 0.0197803
57.5531 63.677 0.028637
65.694 54.1706 0.0352912
64.4369 51.3559 0.0341685
60.7676 60.9185 0.0313004
60.6306 58.1324 0.0391045
62.7564 55.0413 0.0364385
60.233 55.7376 0.0353803
55.0708 67.9298 2
59.2134 62.3399 2
55.8018 64.9013 2
56.3153 62.046 2
65.2204 49.3798 2
63.6198 53.2632 2
62.2314 50.5924 2
59.3186 59.5299 2
60.9395 54.2557 2
59.211 56.9617 2
59.1044 55.1192 2
53.0409 68.9993 3.98984
53.9637 66.0056 3.97894
57.8681 60.8337 3.9689
54.6753 63.1813 3.97108
55.1934 60.564 3.97106
62.9684 48.6057 3.97159
61.5645 52.5175 3.96814
59.9616 49.932 3.97195
57.9762 58.2185 3.96155
59.1331 53.8733 3.96894
57.9623 55.737 3.96301
50.1066 67.8528 3.98378
47.4609 66.5719 3.97974
46.0538 69.1541 3.98541
48.1005 68.5751 2
48.8006 70.7226 3.99053
50.9481 69.9306 2
51.8506 72.1454 4
54.0858 71.1327 2
56.25 69.9759 0
55.1008 7.14281 3.98606
58.3339 6.31992 4
57.0589 8.34191 2
60.3286 7.74926 2
58.9185 9.65915 0.0196254
62.2254 9.30607 0
68.2581 48.1057 0.0351511
69.425 43.9072 0.033511
66.6016 45.4208 0.0300575
67.5055 41.4897 0.0283381
70.0368 39.6583 0.032499
72.4874 37.5126 0.0225303
70.1241 37.5231 2
67.7492 39.5095 2
67.1198 43.4561 2
65.3366 41.1891 2
65.9555 47.3934 2
64.4116 44.8069 2
67.8519 37.5241 3.97205
65.5787 39.3617 3.97677
64.9545 42.9949 3.97677
63.4402 40.9022 3.97671
63.7244 46.6671 3.97351
62.4617 44.1534 3.97653
70.0536 35.394 0.0325069
69.4621 31.1523 0.033801
67.5719 33.6021 0.0290698
66.6776 29.6435 0.0311836
62.3381 12.6588 0.0231441
62.191 15.8004 0.0335428
61.7556 18.7193 0.0387819
65.4317 25.7263 0.0331854
63.9412 28.3043 0.0254747
62.6757 24.6963 0.0295891
61.0646 21.4074 0.0346593
60.1792 23.8187 0.0278041
59.2399 12.809 0.0322976
56.3943 13.1689 0.031269
55.8692 10.2534 0.0268344
67.7881 35.5544 2
67.1778 31.6388 2
65.4923 33.95 2
64.4525 30.2345 2
60.7682 14.2466 2
60.5767 17.1627 2
60.0792 19.8871 2
63.341 26.4701 2
61.9466 28.855 2
59.4268 22.356 2
60.7741 25.4265 2
58.6639 24.4391 2
57.8964 14.3762 2
55.2951 14.7117 2
54.0363 9.14701 2
54.7773 12.0591 2
65.6772 35.6793 3.97687
64.9747 32.1864 3.97674
64.0044 34.2775 3.97677
62.2659 30.6987 3.97626
61.3591 27.1553 3.97582
60.4725 29.2331 3.9764
59.2934 15.7061 3.96165
58.9806 25.9151 3.97618
59.0272 18.4221 3.96067
58.5284 20.9544 3.96349
57.9833 23.216 3.96948
57.6219 24.7998 3.97515
52.1096 8.16234 3.97738
53.0497 11.0515 3.97056
56.6517 15.8028 3.96196
53.7907 13.7522 3.96551
54.3385 16.0803 3.96121
55.0689 67.9312 0.0115878
65.2208 49.3804 0.0328477
55.8015 64.902 0.0240034
59.2132 62.3379 0.0306926
56.3165 62.046 0.0299539
63.62 53.2634 0.0355063
62.2317 50.593 0.0305257
59.3186 59.5277 0.0370149
59.2059 56.9605 0.0380747
60.939 54.2558 0.0331471
59.101 55.1189 0.0324408
53.0427 68.9986 2
53.9645 66.0056 2
57.8667 60.8346 2
54.675 63.1831 2
55.1909 60.5641 2
62.9672 48.6049 2
61.5645 52.5172 2
59.9627 49.9315 2
57.9732 58.2193 2
59.1369 53.8735 2
57.959 55.7354 2
52.0677 66.9951 3.98235
52.9483 64.204 3.97593
56.6251 59.446 3.96756
53.6645 61.5719 3.97041
[...]
POINT_DATA 3012
SCALARS rho_c_phif_kappa float 4
LOOKUP_TABLE default
1000 0 1.00198 0.268713
1000 0 1.00162 0.269078
1000 0 1.00198 0.268755
1000 0 1.00198 0.269129
1000 0 1.00198 0.268811
1000 0 1.00198 0.268717
1010.53 1.16636e-08 1.0023 0.267582
1000 0 1.00162 0.269111
1000 0 1.00162 0.269526
1000 0 1.00162 0.269221
1000 0 1.00198 0.268618
1010.49 1.14339e-08 1.00248 0.267648
1000 0 1.00197 0.269507
1000 0 1.00197 0.270198
1000 0 1.00198 0.268775
1000 0 1.00198 0.269544
1000 0 1.00198 0.268641
1000 0 1.00198 0.268994
1010.44 1.16947e-08 1.0023 0.267607
1000 0 1.00162 0.269589
1000 0 1.00198 0.26924
1000 0 1.00198 0.268969
1010.48 1.17925e-08 1.00229 0.268416
1010.51 1.17157e-08 1.00229 0.267864
1000 0 1.00199 0.268815
1010.56 1.1612e-08 1.0023 0.267283
1011.41 1.31178e-08 1.00261 0.264498
1000 0 1.00162 0.269175
1000 0 1.0018 0.269192
1000 0 1.0018 0.268932
1000 0 1.00162 0.269304
1010.5 1.14724e-08 1.00248 0.267568
1000 0 1.00198 0.268968
1000 0 1.00198 0.26852
1010.52 1.1736e-08 1.0023 0.267622
1000 0 1.00162 0.269754
1010.48 1.15243e-08 1.0023 0.267661
1010.53 1.13886e-08 1.00249 0.267629
1011.43 1.30993e-08 1.00261 0.264631
1000 0 1.00162 0.269967
1000 0 1.00162 0.269587
1000 0 1.0018 0.269849
1000 0 1.00162 0.269625
1000 0 1.00198 0.270306
1010.43 1.18128e-08 1.00246 0.268479
1000 0 1.00162 0.270106
1010.5 1.18462e-08 1.00229 0.268116
1000 0 1.00197 0.269996
1000 0 1.00198 0.269176
1000 0 1.00199 0.268543
1010.53 1.16636e-08 1.0023 0.267632
1000 0 1.0018 0.269886
1000 0 1.00197 0.269704
1000 0 1.00199 0.268671
1000 0 1.00198 0.269289
1010.28 1.182e-08 1.00229 0.268208
1010.52 1.16472e-08 1.0023 0.267401
1010.36 1.17437e-08 1.00229 0.267794
1011.42 1.31137e-08 1.00261 0.264359
1000 0 1.00162 0.269642
1000 0 1.00198 0.269326
1010.42 1.17875e-08 1.00228 0.268818
1010.46 1.18071e-08 1.00229 0.268596
1010.49 1.17616e-08 1.00229 0.268153
1011.38 1.31149e-08 1.0026 0.265226
1011.4 1.31164e-08 1.0026 0.264399
1000 0 1.00199 0.269059
1010.6 1.15677e-08 1.00231 0.266937
1011.43 1.31225e-08 1.00261 0.264433
1011.26 1.29776e-08 1.00259 0.259721
1000 0 1.00162 0.269079
1000 0 1.00162 0.269487
1000 0 1.00162 0.268999
1010.49 1.14339e-08 1.00248 0.267493
1000 0 1.00162 0.269231
1000 0 1.00162 0.268962
1010.38 1.17648e-08 1.00248 0.267782
1000 0 1.0018 0.269345
1010.45 1.15596e-08 1.00248 0.26766
1010.59 1.14271e-08 1.0024 0.267537
1011.43 1.30947e-08 1.00261 0.264748
1000 0 1.00162 0.269744
1010.83 1.14357e-08 1.00251 0.268221
1010.53 1.18058e-08 1.00247 0.267938
1010.5 1.16355e-08 1.00248 0.267766
1011.39 1.31161e-08 1.0026 0.264275
1010.61 1.13789e-08 1.00231 0.267538
1011.42 1.31034e-08 1.00261 0.264405
1011.46 1.31098e-08 1.00262 0.264871
1011.3 1.30285e-08 1.0026 0.26111
1000 0 1.00162 0.270181
1000 0 1.00162 0.270129
1000 0 1.00162 0.269454
1000 0 1.00162 0.269586
1000 0 1.00162 0.269617
1000 0 1.0018 0.269927
1010.15 1.18403e-08 1.00238 0.268413
1000 0 1.0018 0.269689
1010.31 1.18745e-08 1.00238 0.268285
1000 0 1.00162 0.269635
1010.41 1.17893e-08 1.00246 0.268602
1010.47 1.18333e-08 1.00229 0.268224
1011.36 1.31097e-08 1.0026 0.265902
1010.52 1.18414e-08 1.00229 0.268
1011.37 1.31181e-08 1.0026 0.265396
1000 0 1.00197 0.269493
1000 0 1.00197 0.270223
1000 0 1.00199 0.268534
1000 0 1.00198 0.269618
1010.48 1.17925e-08 1.00229 0.267995
1010.51 1.17157e-08 1.00229 0.267723
1010.56 1.1612e-08 1.0023 0.267518
1011.41 1.31178e-08 1.00261 0.264236
1000 0 1.00162 0.269608
1000 0 1.00197 0.2698
1010.15 1.18154e-08 1.00237 0.268492
1010.26 1.18356e-08 1.00229 0.268395
1000 0 1.00181 0.268929
1010.61 1.16065e-08 1.00231 0.267249
1010.32 1.17885e-08 1.00229 0.26799
1011.4 1.31112e-08 1.0026 0.265155
1011.43 1.31173e-08 1.00261 0.264217
1011.41 1.31127e-08 1.0026 0.264449
1011.25 1.29781e-08 1.00259 0.259713
1010.38 1.17781e-08 1.00246 0.268671
1010.44 1.1804e-08 1.00229 0.268679
1011.36 1.31069e-08 1.00259 0.265966
1011.37 1.31138e-08 1.00259 0.265541
1011.39 1.31158e-08 1.0026 0.264729
1011.23 1.29386e-08 1.00258 0.261894
1000 0 1.00163 0.269563
1011.24 1.29608e-08 1.00258 0.260053
1010.66 1.15347e-08 1.0025 0.267096
1011.45 1.31338e-08 1.00262 0.264261
1011.27 1.29972e-08 1.00259 0.259441
1011.2 1.29076e-08 1.00258 0.256127
1010.78 1.1509e-08 1.00251 0.267797
1011.53 1.31855e-08 1.00263 0.266745
1000 0 1.00162 0.269224
1000 0 1.00162 0.268996
1010.52 1.1736e-08 1.00248 0.26783
1000 0 1.00162 0.269773
1010.53 1.13886e-08 1.00249 0.267415
1010.48 1.15243e-08 1.00248 0.267635
1011.43 1.30993e-08 1.00261 0.264859
1000 0 1.00162 0.269889
1010.86 1.14586e-08 1.00251 0.268419
1010.36 1.18335e-08 1.00238 0.2679
1010.41 1.16669e-08 1.00239 0.26769
1011.41 1.31123e-08 1.0026 0.264304
1010.66 1.14138e-08 1.0025 0.267555
1011.42 1.30991e-08 1.00261 0.264519
1011.46 1.31063e-08 1.00262 0.264991
1011.3 1.30297e-08 1.0026 0.260801
1010.7 1.14011e-08 1.0025 0.267737
1010.93 1.14706e-08 1.00252 0.268653
1011.54 1.31695e-08 1.00263 0.267391
1011.39 1.31197e-08 1.0026 0.264536
1011.41 1.31102e-08 1.00261 0.264225
1011.24 1.29489e-08 1.00258 0.259612
1011.49 1.31307e-08 1.00262 0.265604
1011.28 1.30027e-08 1.00259 0.259343
1011.31 1.3054e-08 1.0026 0.262114
1011.24 1.29522e-08 1.00259 0.257844
1000 0 1.00162 0.270257
1000 0 1.00162 0.270215
1000 0 1.00162 0.270178
1010.88 1.15248e-08 1.00252 0.268354
1000 0 1.00163 0.269818
1000 0 1.00162 0.269362
1000 0 1.00162 0.26953
1010.5 1.18462e-08 1.00247 0.26848
1010.43 1.18128e-08 1.00246 0.268628
1000 0 1.00162 0.269637
1000 0 1.00162 0.269634
1010.35 1.18147e-08 1.00246 0.26862
1010.44 1.186e-08 1.00238 0.268389
1011.4 1.31057e-08 1.0026 0.265904
1010.32 1.18693e-08 1.00247 0.268253
1011.4 1.31139e-08 1.0026 0.265375
1010.38 1.17714e-08 1.00246 0.268638
1011.36 1.31049e-08 1.0026 0.266028
1011.37 1.31145e-08 1.0026 0.26573
1011.22 1.29295e-08 1.00258 0.26385
1011.38 1.31195e-08 1.0026 0.264958
1011.22 1.29319e-08 1.00258 0.262369
1000 0 1.00162 0.269616
1000 0 1.00197 0.270317
1010.42 1.17875e-08 1.00246 0.268504
1010.46 1.18071e-08 1.00229 0.268177
1000 0 1.00163 0.269343
1010.6 1.15677e-08 1.00231 0.267563
1010.49 1.17616e-08 1.00229 0.267829
1011.38 1.31149e-08 1.0026 0.265074
1011.4 1.31164e-08 1.00261 0.264494
1011.43 1.31225e-08 1.00261 0.264009
1011.26 1.29776e-08 1.00259 0.259702
1010.31 1.18036e-08 1.00246 0.268648
1010.41 1.18308e-08 1.00229 0.268492
1011.39 1.31029e-08 1.00259 0.265891
1011.39 1.31098e-08 1.0026 0.265553
1000 0 1.00162 0.269478
1010.69 1.15728e-08 1.00241 0.267286
1011.45 1.31284e-08 1.00262 0.264209
1011.4 1.31122e-08 1.0026 0.26467
1011.23 1.29388e-08 1.00258 0.261654
1011.27 1.2998e-08 1.00259 0.259398
1011.24 1.29612e-08 1.00259 0.260146
1011.2 1.29077e-08 1.00258 0.256195
1010.85 1.15405e-08 1.00251 0.267653
1011.53 1.31807e-08 1.00263 0.266768
1011.36 1.31039e-08 1.0026 0.266059
1011.37 1.31113e-08 1.00259 0.265804
1011.23 1.29327e-08 1.00258 0.26384
1011.22 1.29328e-08 1.00258 0.262244
1011.23 1.2948e-08 1.00259 0.260692
1011.18 1.28789e-08 1.00258 0.258986
1010.72 1.15124e-08 1.0025 0.267293
1011.19 1.28943e-08 1.00258 0.256566
1011.48 1.3151e-08 1.00262 0.264898
1011.29 1.30211e-08 1.0026 0.259682
1011.22 1.2923e-08 1.00259 0.255867
1011.2 1.29033e-08 1.00258 0.254619
1011.52 1.31736e-08 1.00262 0.265965
1011.55 1.3198e-08 1.00263 0.267601
1011.35 1.31129e-08 1.00261 0.265404
1010.53 1.18058e-08 1.00247 0.268039
1000 0 1.00162 0.270087
1010.83 1.14357e-08 1.00251 0.268667
1010.5 1.16355e-08 1.00248 0.267696
1011.39 1.31161e-08 1.0026 0.264341
1010.61 1.13789e-08 1.0025 0.26765
1011.46 1.31098e-08 1.00262 0.265114
1011.42 1.31034e-08 1.00261 0.264629
1011.3 1.30285e-08 1.0026 0.260494
1010.76 1.14294e-08 1.0025 0.267934
1010.95 1.14871e-08 1.00252 0.268791
1011.54 1.31668e-08 1.00263 0.267494
1011.4 1.31159e-08 1.0026 0.264533
1011.42 1.31064e-08 1.00261 0.264296
1011.23 1.29496e-08 1.00258 0.259617
1011.49 1.31276e-08 1.00262 0.26571
1011.28 1.30036e-08 1.00259 0.259535
1011.31 1.30549e-08 1.0026 0.262173
1011.24 1.29522e-08 1.00259 0.257291
1011.03 1.15057e-08 1.00253 0.268852
1011.52 1.31525e-08 1.00263 0.266657
1011.55 1.31808e-08 1.00263 0.268359
1011.36 1.31319e-08 1.00261 0.266115
1011.22 1.29316e-08 1.00258 0.260188
1011.25 1.29762e-08 1.00259 0.259285
1011.19 1.28765e-08 1.00258 0.255757
1011.33 1.30818e-08 1.00261 0.263732
1011.22 1.29179e-08 1.00259 0.254629
1011.26 1.29696e-08 1.0026 0.258585
1011.23 1.2938e-08 1.00259 0.255721
1011.55 1.32077e-08 1.00263 0.269712
1011.2 1.15732e-08 1.00254 0.268883
1000 0 1.00163 0.270268
1000 0 1.00163 0.270241
1000 0 1.00162 0.270204
1010.99 1.15625e-08 1.00252 0.268605
1000 0 1.00163 0.269998
1010.93 1.15527e-08 1.00252 0.268148
1000 0 1.00163 0.2697
1010.52 1.18414e-08 1.00247 0.268279
1010.47 1.18333e-08 1.00247 0.268582
1011.37 1.31181e-08 1.0026 0.265349
1011.36 1.31097e-08 1.0026 0.265898
1010.41 1.17893e-08 1.00246 0.268647
1000 0 1.00162 0.269634
1010.05 1.17995e-08 1.00246 0.268637
1011.36 1.31012e-08 1.0026 0.266026
1011.37 1.31106e-08 1.0026 0.265699
1011.22 1.29295e-08 1.00258 0.263842
1011.4 1.31156e-08 1.0026 0.264933
1011.22 1.29321e-08 1.00258 0.262426
1011.35 1.31028e-08 1.0026 0.266077
1011.22 1.2927e-08 1.00258 0.264141
1011.22 1.29321e-08 1.00258 0.26337
1011.18 1.28694e-08 1.00257 0.261767
1011.22 1.29304e-08 1.00258 0.2612
1011.18 1.28755e-08 1.00257 0.259925
1010.38 1.17781e-08 1.00246 0.268622
1010.44 1.1804e-08 1.00229 0.268274
1011.36 1.31069e-08 1.00259 0.265825
1011.37 1.31138e-08 1.0026 0.265545
1000 0 1.00162 0.269383
1010.66 1.15347e-08 1.00231 0.267221
1011.45 1.31338e-08 1.00262 0.264157
1011.39 1.31158e-08 1.0026 0.264604
1011.23 1.29386e-08 1.00258 0.2614
1011.24 1.29608e-08 1.00259 0.260246
1011.27 1.29972e-08 1.00259 0.259326
1011.2 1.29076e-08 1.00258 0.256253
1010.78 1.1509e-08 1.00251 0.26751
1011.53 1.31855e-08 1.00263 0.266768
1011.36 1.31002e-08 1.00259 0.266005
1011.37 1.31077e-08 1.0026 0.265789
1011.22 1.29327e-08 1.00258 0.263766
1011.22 1.29331e-08 1.00258 0.262447
1010.76 1.15475e-08 1.0025 0.267249
1011.48 1.31465e-08 1.00262 0.264705
1011.29 1.30222e-08 1.0026 0.25977
1011.23 1.29484e-08 1.00259 0.260827
1011.18 1.28785e-08 1.00257 0.258695
1011.22 1.29233e-08 1.00259 0.255557
1011.19 1.28942e-08 1.00258 0.256587
1011.2 1.2903e-08 1.00258 0.254467
1011.51 1.31712e-08 1.00262 0.266159
1011.35 1.31147e-08 1.00261 0.265556
1011.54 1.31948e-08 1.00263 0.267442
1011.22 1.29286e-08 1.00258 0.264224
1011.22 1.29326e-08 1.00258 0.263138
1011.18 1.28773e-08 1.00257 0.26196
1011.18 1.28731e-08 1.00257 0.259561
1011.18 1.28829e-08 1.00258 0.257165
1011.17 1.28732e-08 1.00257 0.256173
1011.5 1.31625e-08 1.00262 0.265458
1011.19 1.28894e-08 1.00258 0.254334
1011.31 1.30504e-08 1.0026 0.261706
1011.23 1.29387e-08 1.00259 0.254472
1011.21 1.29164e-08 1.00258 0.253403
1011.19 1.28925e-08 1.00258 0.252812
1011.55 1.32091e-08 1.00263 0.268395
1011.34 1.30966e-08 1.00261 0.264818
1011.36 1.31266e-08 1.00261 0.266336
1011.32 1.30427e-08 1.00261 0.264531
1011.39 1.31197e-08 1.0026 0.264535
1010.93 1.14706e-08 1.00252 0.268901
1010.7 1.14011e-08 1.0025 0.268158
1011.54 1.31695e-08 1.00263 0.267605
1011.41 1.31102e-08 1.00261 0.264373
1011.24 1.29489e-08 1.00258 0.259618
1011.49 1.31307e-08 1.00262 0.265805
1011.31 1.3054e-08 1.0026 0.262222
1011.28 1.30027e-08 1.00259 0.259725
1011.24 1.29522e-08 1.00259 0.256783
1011.03 1.15196e-08 1.00253 0.268923
1011.51 1.31496e-08 1.00262 0.266623
1011.55 1.31787e-08 1.00263 0.268534
1011.37 1.31327e-08 1.00261 0.266202
1011.22 1.29319e-08 1.00258 0.260198
1011.25 1.2977e-08 1.00259 0.259308
1011.19 1.28762e-08 1.00258 0.255756
1011.34 1.30833e-08 1.00261 0.263966
1011.22 1.29183e-08 1.00259 0.255018
1011.26 1.29696e-08 1.0026 0.258282
1011.23 1.29386e-08 1.00259 0.255953
1011.12 1.15367e-08 1.00253 0.268912
1011.55 1.31881e-08 1.00263 0.269265
1011.35 1.31093e-08 1.00261 0.265359
1011.37 1.3143e-08 1.00261 0.266979
1011.33 1.30602e-08 1.00261 0.265066
1011.18 1.28712e-08 1.00258 0.256467
1011.2 1.28851e-08 1.00258 0.254705
1011.2 1.30012e-08 1.00258 0.252941
1011.29 1.29972e-08 1.0026 0.259857
1011.21 1.29334e-08 1.00258 0.251619
1011.24 1.29428e-08 1.00259 0.255354
1011.55 1.31986e-08 1.00263 0.26974
1011.35 1.31385e-08 1.00261 0.2695
1011.55 1.32186e-08 1.00263 0.269693
1011.55 1.32063e-08 1.00263 0.269715
1011.27 1.16114e-08 1.00235 0.269202
1011.2 1.15853e-08 1.00244 0.269185
1000 0 1.00201 0.269511
1000 0 1.00163 0.270245
1000 0 1.00163 0.270221
1011.1 1.16146e-08 1.00253 0.268804
1000 0 1.00163 0.270152
1011.02 1.15848e-08 1.00252 0.268489
1000 0 1.00163 0.269912
1010.88 1.15248e-08 1.00252 0.267991
1000 0 1.00162 0.269612
1011.38 1.31195e-08 1.0026 0.264912
1011.37 1.31145e-08 1.0026 0.265681
1011.22 1.29319e-08 1.00258 0.262447
1011.22 1.29295e-08 1.00258 0.263834
1011.36 1.31049e-08 1.00259 0.266021
1010.38 1.17714e-08 1.00246 0.268616
1011.39 1.30988e-08 1.00259 0.266077
1011.22 1.29269e-08 1.00258 0.264135
1011.22 1.29325e-08 1.00258 0.263306
1011.18 1.28691e-08 1.00257 0.261662
1011.22 1.29309e-08 1.00258 0.261202
1011.18 1.28752e-08 1.00257 0.259943
1011.22 1.29271e-08 1.00258 0.264224
1011.17 1.2855e-08 1.00257 0.262381
1011.18 1.28684e-08 1.00257 0.26109
1011.18 1.29434e-08 1.00257 0.260718
1011.18 1.28706e-08 1.00257 0.257816
1011.17 1.28842e-08 1.00257 0.257071
1011.36 1.31039e-08 1.00259 0.265956
1011.37 1.31113e-08 1.0026 0.265801
1011.23 1.29327e-08 1.00258 0.263654
1011.22 1.29328e-08 1.00258 0.262668
1010.72 1.15124e-08 1.0025 0.2672
1011.48 1.3151e-08 1.00262 0.264511
1011.29 1.30211e-08 1.0026 0.25987
1011.23 1.2948e-08 1.00259 0.260971
1011.18 1.28789e-08 1.00257 0.258406
1011.19 1.28943e-08 1.00258 0.256607
1011.22 1.2923e-08 1.00259 0.255294
1011.2 1.29033e-08 1.00258 0.254354
1011.52 1.31736e-08 1.00262 0.266336
1011.35 1.31129e-08 1.00261 0.265692
1011.55 1.3198e-08 1.00263 0.267337
1011.22 1.29285e-08 1.00258 0.264173
1011.22 1.29329e-08 1.00258 0.263116
1011.18 1.28769e-08 1.00257 0.261765
1011.18 1.28727e-08 1.00257 0.259746
1011.49 1.31585e-08 1.00262 0.265412
1011.31 1.30509e-08 1.0026 0.26156
1011.23 1.29393e-08 1.00259 0.254786
1011.18 1.28826e-08 1.00258 0.257408
1011.17 1.28729e-08 1.00257 0.256018
1011.21 1.29162e-08 1.00258 0.253133
1011.19 1.28892e-08 1.00258 0.254352
1011.19 1.28924e-08 1.00258 0.253038
1011.34 1.30986e-08 1.00261 0.264646
1011.32 1.30433e-08 1.00261 0.264432
1011.54 1.32069e-08 1.00263 0.268332
1011.36 1.31271e-08 1.00261 0.266688
1011.18 1.28678e-08 1.00257 0.262404
1011.17 1.28649e-08 1.00257 0.260804
1011.17 1.28857e-08 1.00257 0.260822
1011.17 1.28803e-08 1.00257 0.256569
1011.18 1.28899e-08 1.00257 0.255062
1011.17 1.28669e-08 1.00257 0.254871
1011.33 1.30754e-08 1.0026 0.263851
1011.18 1.28896e-08 1.00257 0.252296
1011.26 1.29654e-08 1.0026 0.256123
1011.22 1.29285e-08 1.00259 0.251203
1011.2 1.29347e-08 1.00258 0.251889
1011.16 1.28083e-08 1.00258 0.25238
1011.55 1.32213e-08 1.00263 0.268961
1011.35 1.31305e-08 1.00261 0.267179
1011.3 1.30228e-08 1.0026 0.263145
1011.34 1.3065e-08 1.00261 0.265223
1011.32 1.30361e-08 1.00261 0.26308
1011.03 1.15057e-08 1.00253 0.269001
1011.22 1.29316e-08 1.00258 0.260215
1011.55 1.31808e-08 1.00263 0.268725
1011.52 1.31525e-08 1.00262 0.266549
1011.36 1.31319e-08 1.00261 0.266268
1011.25 1.29762e-08 1.00259 0.259321
1011.19 1.28765e-08 1.00258 0.255752
1011.33 1.30818e-08 1.00261 0.264205
1011.26 1.29696e-08 1.0026 0.257816
1011.22 1.29179e-08 1.00259 0.255407
1011.23 1.2938e-08 1.00259 0.256075
1011.12 1.15484e-08 1.00253 0.268941
1011.55 1.31866e-08 1.00263 0.269338
1011.35 1.31106e-08 1.00261 0.265414
1011.37 1.31436e-08 1.00261 0.267218
1011.34 1.30612e-08 1.00261 0.265019
1011.18 1.28723e-08 1.00258 0.256406
1011.2 1.2885e-08 1.00258 0.254698
1011.2 1.30024e-08 1.00258 0.252878
1011.29 1.29984e-08 1.0026 0.260056
1011.21 1.29329e-08 1.00258 0.251964
1011.24 1.2944e-08 1.00259 0.255251
1011.55 1.31923e-08 1.00263 0.26964
1011.36 1.31464e-08 1.00261 0.268087
1011.31 1.30308e-08 1.00261 0.262818
1011.36 1.30864e-08 1.00261 0.266005
1011.33 1.30551e-08 1.00261 0.263882
1011.19 1.30333e-08 1.00257 0.254568
1011.21 1.29519e-08 1.00258 0.251267
1011.08 1.2406e-08 1.00257 0.250235
1011.27 1.29699e-08 1.0026 0.255601
1011.23 1.30521e-08 1.00259 0.251494
1011.55 1.31973e-08 1.00263 0.269766
1011.35 1.31395e-08 1.00261 0.269462
1011.35 1.31395e-08 1.00261 0.269464
1011.36 1.30911e-08 1.00261 0.268578
1011.35 1.31393e-08 1.00261 0.269438
1011.54 1.32311e-08 1.00263 0.269704
1011.55 1.3217e-08 1.00263 0.269687
1011.35 1.1661e-08 1.00236 0.269194
1011.55 1.32077e-08 1.00263 0.269721
1011.28 1.16217e-08 1.00235 0.26938
1000 0 1.00202 0.269463
1011.2 1.15732e-08 1.00235 0.269369
1000 0 1.00182 0.26963
1000 0 1.00163 0.270223
1011.21 1.16647e-08 1.00254 0.268994
1011.12 1.16288e-08 1.00253 0.26868
1000 0 1.00163 0.270205
1000 0 1.00163 0.270061
1010.99 1.15625e-08 1.00253 0.268345
1000 0 1.00163 0.269806
1011.22 1.29304e-08 1.00258 0.261198
1011.22 1.29321e-08 1.00258 0.26328
1011.18 1.28755e-08 1.00257 0.25997
1011.18 1.28694e-08 1.00257 0.261557
1011.22 1.2927e-08 1.00258 0.264128
1011.35 1.31028e-08 1.00259 0.266071
1011.22 1.29269e-08 1.00258 0.264227
1011.17 1.28546e-08 1.00257 0.262419
1011.18 1.28677e-08 1.00257 0.261077
1011.18 1.29432e-08 1.00257 0.260598
1011.18 1.28699e-08 1.00257 0.257774
1011.17 1.28838e-08 1.00257 0.257211
1011.17 1.28431e-08 1.00257 0.262638
1011.2 1.30411e-08 1.00257 0.261566
1011.18 1.29582e-08 1.00257 0.259026
1011.15 1.28855e-08 1.00257 0.259852
1011.18 1.29407e-08 1.00257 0.256312
1011.19 1.29632e-08 1.00257 0.255841
1011.22 1.29286e-08 1.00258 0.264128
1011.22 1.29326e-08 1.00258 0.263036
1011.18 1.28773e-08 1.00257 0.261585
1011.18 1.28731e-08 1.00257 0.259933
1011.5 1.31625e-08 1.00262 0.26536
1011.31 1.30504e-08 1.0026 0.261429
1011.23 1.29387e-08 1.00259 0.255082
1011.18 1.28829e-08 1.00258 0.257644
1011.17 1.28732e-08 1.00257 0.255879
1011.19 1.28894e-08 1.00258 0.254372
1011.21 1.29164e-08 1.00258 0.252778
1011.19 1.28925e-08 1.00258 0.253156
1011.34 1.30966e-08 1.00261 0.264506
1011.32 1.30427e-08 1.00261 0.264404
1011.55 1.32091e-08 1.00263 0.268242
1011.36 1.31266e-08 1.00261 0.266798
1011.18 1.28675e-08 1.00257 0.262412
1011.17 1.28645e-08 1.00257 0.2608
1011.17 1.28857e-08 1.00257 0.26075
1011.17 1.28805e-08 1.00257 0.256796
1011.33 1.30769e-08 1.0026 0.263672
1011.26 1.29667e-08 1.0026 0.256519
1011.22 1.29277e-08 1.00259 0.250993
1011.18 1.28896e-08 1.00257 0.255224
1011.17 1.28671e-08 1.00257 0.254777
1011.2 1.29343e-08 1.00258 0.251633
1011.18 1.28893e-08 1.00257 0.252301
1011.16 1.2807e-08 1.00258 0.252521
1011.3 1.30236e-08 1.0026 0.263042
1011.31 1.30345e-08 1.00261 0.262876
1011.34 1.30643e-08 1.00261 0.265316
1011.55 1.32193e-08 1.00263 0.268897
1011.35 1.31308e-08 1.00261 0.267139
1011.19 1.30214e-08 1.00257 0.261361
1011.18 1.29224e-08 1.00257 0.25924
1011.16 1.28364e-08 1.00257 0.254421
1011.15 1.28272e-08 1.00257 0.253539
1011.29 1.29992e-08 1.0026 0.260527
1011.15 1.27669e-08 1.00257 0.249493
1011.25 1.29521e-08 1.00259 0.25218
1011.22 1.30082e-08 1.00258 0.248034
1011.16 1.27352e-08 1.00258 0.250756
1011.55 1.32326e-08 1.00262 0.269281
1011.35 1.31331e-08 1.00261 0.267641
1011.35 1.30743e-08 1.00261 0.266287
1011.3 1.30182e-08 1.0026 0.260936
1011.34 1.30617e-08 1.00261 0.263783
1011.31 1.30379e-08 1.0026 0.260719
1011.12 1.15367e-08 1.00253 0.268946
1011.55 1.31881e-08 1.00263 0.269401
1011.18 1.28712e-08 1.00258 0.256342
1011.37 1.3143e-08 1.00261 0.267467
1011.35 1.31093e-08 1.00261 0.265488
1011.33 1.30602e-08 1.00261 0.264966
1011.2 1.28851e-08 1.00258 0.254696
1011.2 1.30012e-08 1.00258 0.252826
1011.29 1.29972e-08 1.0026 0.260287
1011.24 1.29428e-08 1.00259 0.255262
1011.21 1.29334e-08 1.00258 0.252297
1011.55 1.31905e-08 1.00263 0.269686
1011.37 1.31468e-08 1.00261 0.268231
1011.31 1.3031e-08 1.00261 0.263018
1011.36 1.30868e-08 1.00261 0.266128
1011.33 1.3058e-08 1.00261 0.26366
1011.19 1.30278e-08 1.00257 0.254516
1011.2 1.29538e-08 1.00258 0.251301
1011.09 1.23997e-08 1.00257 0.250194
1011.27 1.29711e-08 1.0026 0.255408
1011.24 1.30537e-08 1.00259 0.251268