# vtk DataFile Version 2.0
Wound Healing Simulation
ASCII
DATASET UNSTRUCTURED_GRID
POINTS 3012 float
69.9759 18.75 4
67.2507 60.3285 4
69.976 18.75 2
73.0099 25.446 4
71.1327 20.9142 4
68.6801 16.6661 4
67.8185 19.9246 3.96731
67.2507 60.3286 2
71.1327 54.0858 4
68.6801 58.3339 4
65.6939 62.2254 4
65.3037 58.9999 3.96531
74.6784 42.3946 4
73.7221 47.2057 4
69.9759 18.75 0
73.0099 25.446 2
68.6801 16.6661 2
71.1327 20.9142 2
67.819 19.9294 2
74.6792 32.6053 4
73.7222 27.7943 4
72.1454 23.1494 4
70.6103 26.2225 3.97013
68.8798 21.9573 3.96818
67.2507 14.6715 4
66.6291 17.9708 3.96617
65.6652 21.0753 3.96063
67.2507 60.3285 0
71.1327 54.0858 2
68.6801 58.3339 2
65.694 62.2255 2
65.3055 58.9926 2
72.1454 51.8506 4
69.9759 56.25 4
68.8301 53.1148 3.96819
64.0165 64.0165 4
66.6026 57.1347 3.96704
63.8767 60.7609 3.96204
63.3835 57.7156 3.95638
60.3285 67.2507 4
74.6792 42.3947 2
73.7222 47.2057 2
74.9194 39.9526 4
74.2788 44.8158 4
72.165 42.0855 3.97277
73.0099 49.554 4
71.2456 46.5977 3.97101
73.0099 25.446 0
71.1327 20.9142 0
68.6801 16.6661 0
67.8185 19.9246 0.032691
74.6792 32.6053 2
73.7222 27.7943 2
67.2508 14.6715 2
72.1455 23.1494 2
70.6094 26.2239 2
66.6305 17.9765 2
68.8797 21.9608 2
65.6678 21.0767 2
74.9197 35.0474 4
74.2794 30.1841 4
72.1818 32.9454 3.97293
71.2749 28.4336 3.97101
69.8108 24.06 3.96925
68.2506 26.9814 3.96554
66.643 22.976 3.96265
65.694 12.7746 4
65.3145 16.104 3.96388
64.5673 19.2531 3.95724
63.5748 22.1657 3.96894
71.1327 54.0858 0
65.6939 62.2254 0
68.6801 58.3339 0
65.3037 58.9999 0.0346894
72.1455 51.8506 2
69.9759 56.25 2
68.8302 53.1108 2
64.0165 64.0165 2
66.6043 57.1283 2
63.8789 60.753 2
63.3861 57.7149 2
62.2254 65.694 4
58.8856 65.408 3.96934
69.7638 50.9898 3.96925
67.7763 55.1692 3.96743
66.5161 52.1655 3.96311
62.3274 62.4217 3.96514
64.5219 55.9772 3.95905
62.1258 59.3457 3.95196
61.5443 56.5362 3.96294
58.3339 68.6801 4
60.3285 67.2508 2
73.7221 47.2057 0
74.6784 42.3946 0
74.9197 39.9526 2
74.2794 44.8159 2
72.1639 42.0844 2
73.0099 49.554 2
71.2446 46.5959 2
75 37.5 4
72.4023 39.8026 3.97365
71.779 44.3525 3.9721
69.7615 41.7838 3.96923
70.5709 48.8137 3.97025
68.8325 45.9957 3.96845
74.6792 32.6053 0
73.7222 27.7943 0
67.2507 14.6715 0
72.1454 23.1494 0
70.6103 26.2225 0.02987
68.8798 21.9573 0.0318237
66.6291 17.9708 0.0338324
65.6652 21.0753 0.0393663
74.9197 35.0474 2
74.2794 30.1841 2
72.1804 32.9455 2
71.2738 28.4345 2
65.694 12.7745 2
65.3155 16.1114 2
69.8102 24.0623 2
68.2524 26.9824 2
64.5632 19.2556 2
66.6455 22.9774 2
63.5747 22.1673 2
72.4102 35.2257 3.97379
71.8007 30.6786 3.9723
69.7976 33.2791 3.9689
68.888 29.061 3.96716
67.5006 24.9488 3.96385
65.8686 27.7282 3.97583
64.0165 10.9835 4
64.4426 23.9483 3.97284
63.8797 14.3311 3.96224
63.3793 17.5079 3.95376
62.6044 20.4626 3.96534
61.603 23.1604 3.97371
60.6759 11.1052 3.96715
57.5988 11.5159 3.95979
72.1454 51.8506 0
69.9759 56.25 0
68.8301 53.1148 0.0318093
64.0165 64.0165 0
63.8767 60.7609 0.0379614
66.6026 57.1347 0.0329637
63.3835 57.7156 0.0436151
62.2255 65.694 2
58.8897 65.4015 2
69.7635 50.987 2
67.7771 55.1638 2
66.5178 52.164 2
62.3309 62.4129 2
64.5185 55.9747 2
62.1281 59.3443 2
61.5505 56.5366 2
60.6604 63.9707 3.96475
57.0178 66.7267 3.97008
57.5388 63.6222 3.96663
67.3829 50.1397 3.96498
65.5686 54.1251 3.96142
64.1946 51.2629 3.97325
60.7413 60.8804 3.95121
62.5118 54.9293 3.96789
60.3711 57.9957 3.9582
59.9026 55.5651 3.96957
56.25 69.9759 4
58.3339 68.6801 2
60.3285 67.2507 0
58.9142 9.6646 3.96733
62.2254 9.30607 4
73.0099 49.554 0
74.2788 44.8158 0
71.2456 46.5977 0.0289886
72.165 42.0855 0.0272274
74.9194 39.9526 0
75 37.5 2
72.4015 39.8018 2
71.7784 44.351 2
69.762 41.7831 2
70.5704 48.8115 2
68.8345 45.9946 2
72.4859 37.513 3.97357
70.0085 39.656 3.96922
69.3739 43.896 3.96914
67.2944 41.4653 3.97657
68.1608 48.0789 3.96694
66.3746 45.3679 3.97602
74.9197 35.0474 0
74.2794 30.1841 0
72.1818 32.9454 0.0270738
71.2749 28.4336 0.0289899
65.694 12.7746 0
65.3145 16.104 0.0361222
69.8108 24.06 0.0307539
68.2506 26.9814 0.0344577
66.643 22.976 0.0373489
64.5673 19.2531 0.0427554
63.5748 22.1657 0.0310617
72.4095 35.2254 2
71.7999 30.6794 2
69.7988 33.2796 2
68.8904 29.0618 2
64.0165 10.9835 2
63.8824 14.3391 2
63.398 17.504 2
67.5029 24.95 2
65.8653 27.7302 2
62.6111 20.4625 2
64.4415 23.9501 2
61.6026 23.1631 2
60.6793 11.1119 2
57.5916 11.5057 2
70.0216 35.3983 3.96895
69.4106 31.1654 3.96814
67.3591 33.6286 3.97635
66.4522 29.6993 3.97604
65.2033 25.8058 3.97467
63.6129 28.3973 3.97506
62.3317 12.6611 3.96423
62.3447 24.8354 3.97386
62.1259 15.8413 3.95197
61.5159 18.8414 3.96158
60.7464 21.5725 3.97203
59.7781 24.0212 3.97381
59.2226 12.8403 3.95514
55.8625 10.305 3.96952
56.3539 13.2344 3.95381
69.7638 50.9898 0.0307489
62.2254 65.694 0
58.8856 65.408 0.030658
67.7763 55.1692 0.0325687
66.5161 52.1655 0.0368933
62.3274 62.4217 0.0348574
62.1258 59.3457 0.0480425
64.5219 55.9772 0.0409546
61.5443 56.5362 0.0370577
60.6646 63.9617 2
57.0214 66.7215 2
57.5435 63.6417 2
67.3835 50.1382 2
65.5691 54.1232 2
64.1929 51.2614 2
60.7237 60.8866 2
62.516 54.9295 2
60.3702 57.9941 2
59.8983 55.5621 2
55.0641 67.9297 3.97926
59.204 62.2888 3.96862
55.778 64.8286 3.9655
56.2846 61.9807 3.97768
64.9742 49.2975 3.97487
63.3725 53.1598 3.97084
61.8747 50.4475 3.97352
59.1514 59.4085 3.95582
60.5994 54.0872 3.97242
58.7974 56.7546 3.9599
58.6883 54.9055 3.97055
48.0946 68.565 3.97678
50.9427 69.9288 3.98298
54.0858 71.1327 4
56.25 69.976 2
58.3339 68.6801 0
57.0532 8.34165 3.97301
60.3285 7.74928 4
58.917 9.67204 2
62.2255 9.30602 2
70.5709 48.8137 0.02975
71.779 44.3525 0.0279042
68.8325 45.9957 0.0315529
69.7615 41.7838 0.0307732
72.4023 39.8026 0.0263474
75 37.5 0
72.4845 37.5124 2
70.0095 39.6556 2
69.3735 43.8951 2
67.2907 41.4649 2
68.1598 48.0773 2
66.3704 45.3671 2
70.097 37.524 3.96913
67.5411 39.4989 3.97653
66.9055 43.4187 3.97637
65.0624 41.1647 3.97607
65.7145 47.3246 3.97558
64.1165 44.7467 3.97555
72.4102 35.2257 0.0262102
71.8007 30.6786 0.0277038
69.7976 33.2791 0.0310994
68.888 29.061 0.0328356
64.0165 10.9835 0
63.8797 14.3311 0.0377592
63.3793 17.5079 0.0462427
67.5006 24.9488 0.036147
65.8686 27.7282 0.0241666
64.4426 23.9483 0.0271551
62.6044 20.4626 0.0346588
61.603 23.1604 0.0262855
60.6759 11.1052 0.0328469
57.5988 11.5159 0.040208
70.0227 35.3985 2
69.4121 31.166 2
67.3558 33.6292 2
66.4485 29.7005 2
62.3352 12.6686 2
62.1356 15.842 2
61.5194 18.8427 2
65.2005 25.8078 2
63.6123 28.3977 2
60.7455 21.5758 2
62.3435 24.8366 2
59.7756 24.0228 2
59.219 12.8315 2
56.3478 13.2311 2
55.8631 10.3079 2
67.5826 35.5685 3.97655
66.9572 31.6804 3.97627
65.22 33.9804 3.97614
64.1375 30.3066 3.97524
63.0109 26.5881 3.97471
61.5421 28.9732 3.97486
60.7317 14.2859 3.95222
60.3576 25.6029 3.97397
60.3424 17.2939 3.95931
59.7433 20.0698 3.96782
59.0328 22.5735 3.97264
58.1866 24.6801 3.97365
54.0357 9.17091 3.9747
57.7993 14.4818 3.95365
54.7608 12.1428 3.96857
55.1878 14.8462 3.95385
67.3829 50.1397 0.035019
57.0178 66.7267 0.0299153
60.6604 63.9707 0.0352501
57.5388 63.6222 0.0333707
65.5686 54.1251 0.0385807
64.1946 51.2629 0.0267522
60.7413 60.8804 0.0487939
60.3711 57.9957 0.041805
62.5118 54.9293 0.0321125
59.9026 55.5651 0.0304344
55.0688 67.9225 2
59.1956 62.2985 2
55.7829 64.8221 2
56.2818 61.987 2
64.9718 49.2958 2
63.3723 53.1588 2
61.8738 50.4468 2
59.1706 59.413 2
60.5976 54.0848 2
58.8034 56.7546 2
58.6965 54.9053 2
53.0361 68.9946 3.97938
53.9469 65.9639 3.96756
57.777 60.755 3.94893
54.6385 63.0666 3.96646
55.1225 60.478 3.9733
62.6188 48.4841 3.97393
61.2131 52.3541 3.97285
59.4959 49.7272 3.97266
57.6684 58.0382 3.95683
58.7176 53.6545 3.9723
57.4604 55.485 3.96287
50.0981 67.841 3.97192
47.4458 66.5455 3.97311
46.0506 69.1453 3.9797
48.0994 68.5647 2
48.7972 70.7205 3.98617
50.9484 69.9255 2
51.8506 72.1454 4
54.0858 71.1327 2
56.25 69.9759 0
55.0991 7.14376 3.98527
58.3339 6.31992 4
57.0578 8.34667 2
60.3286 7.74926 2
58.9142 9.6646 0.0326732
62.2254 9.30607 0
68.1608 48.0789 0.033061
69.3739 43.896 0.0308612
66.3746 45.3679 0.0239831
67.2944 41.4653 0.0234311
70.0085 39.656 0.0307771
72.4859 37.513 0.0264293
70.0991 37.5239 2
67.5373 39.4987 2
66.9028 43.4175 2
65.0624 41.1645 2
65.7116 47.3228 2
64.1162 44.7465 2
67.6439 37.5262 3.97649
65.3046 39.3501 3.97629
64.6672 42.9495 3.97593
63.0863 40.8672 3.97639
63.4002 46.5795 3.97438
62.0812 44.0838 3.97573
70.0216 35.3983 0.0310544
69.4106 31.1654 0.0318563
67.3591 33.6286 0.0236543
66.4522 29.6993 0.0239597
62.3317 12.6611 0.035769
62.1259 15.8413 0.0480262
61.5159 18.8414 0.038424
65.2033 25.8058 0.0253283
63.6129 28.3973 0.0249369
62.3447 24.8354 0.0261406
60.7464 21.5725 0.0279675
59.7781 24.0212 0.0261898
59.2226 12.8403 0.0448622
56.3539 13.2344 0.0461945
55.8625 10.305 0.0304817
67.5792 35.5687 2
66.9541 31.6814 2
65.2192 33.9807 2
64.1378 30.3067 2
60.7252 14.2854 2
60.3342 17.2981 2
59.7409 20.0735 2
63.0099 26.5889 2
61.5424 28.9732 2
59.0314 22.5766 2
60.357 25.6035 2
58.1821 24.6822 2
57.7951 14.4738 2
55.1756 14.8312 2
54.0396 9.16289 2
54.7509 12.1385 2
65.4037 35.6961 3.9762
64.6766 32.2345 3.97558
63.6737 34.3121 3.97616
61.8657 30.7892 3.97531
60.9407 27.2991 3.97435
59.9896 29.3747 3.97538
59.1055 15.8339 3.95611
58.4795 26.125 3.97456
58.6617 18.6237 3.96238
58.1093 21.1901 3.96876
57.5262 23.4747 3.97245
57.0901 25.0637 3.97455
52.1032 8.19278 3.96532
53.0429 11.0961 3.95795
56.4559 15.9667 3.95495
53.7352 13.842 3.95272
54.1569 16.2418 3.95922
55.0641 67.9297 0.0207383
64.9742 49.2975 0.0251251
55.778 64.8286 0.0344984
59.204 62.2888 0.0313807
56.2846 61.9807 0.0223165
63.3725 53.1598 0.0291556
61.8747 50.4475 0.0264807
59.1514 59.4085 0.044181
58.7974 56.7546 0.0400968
60.5994 54.0872 0.0275841
58.6883 54.9055 0.0294458
53.0421 68.9904 2
53.951 65.956 2
57.7809 60.7782 2
54.6312 63.0603 2
55.1198 60.4829 2
62.6183 48.4834 2
61.2122 52.3526 2
59.4957 49.7263 2
57.6664 58.0382 2
58.7219 53.6527 2
57.4573 55.481 2
52.055 66.967 3.97133
52.92 64.1174 3.96777
56.4328 59.2978 3.95362
[...]
POINT_DATA 3012
SCALARS rho_c_phif_kappa float 4
LOOKUP_TABLE default
1000 0 1.00269 0.276642
1000 0 1.00213 0.276919
1000 0 1.00269 0.27704
1000 0 1.00269 0.277345
1000 0 1.00269 0.276864
1000 0 1.00269 0.276472
1012.74 1.38673e-08 1.00321 0.273535
1000 0 1.00213 0.276875
1000 0 1.00213 0.278198
1000 0 1.00213 0.277656
1000 0 1.0027 0.276276
1012.67 1.35658e-08 1.00349 0.272491
1000 0 1.00267 0.278103
1000 0 1.00268 0.279101
1000 0 1.00269 0.277435
1000 0 1.00268 0.278102
1000 0 1.0027 0.276785
1000 0 1.00269 0.27739
1012.53 1.39206e-08 1.00321 0.273314
1000 0 1.00212 0.27807
1000 0 1.00268 0.277496
1000 0 1.00269 0.277117
1012.71 1.4064e-08 1.0032 0.276043
1012.72 1.39448e-08 1.00321 0.274457
1000 0 1.0027 0.276363
1012.76 1.3794e-08 1.00322 0.27244
1014.48 1.65156e-08 1.00376 0.265222
1000 0 1.00213 0.276847
1000 0 1.00241 0.277653
1000 0 1.00241 0.277155
1000 0 1.00213 0.276852
1012.58 1.363e-08 1.00349 0.272554
1000 0 1.00268 0.277321
1000 0 1.00269 0.276707
1012.74 1.39745e-08 1.0032 0.273688
1000 0 1.00213 0.277782
1012.66 1.36804e-08 1.0032 0.272679
1012.72 1.35189e-08 1.0035 0.272568
1014.46 1.64091e-08 1.00378 0.261502
1000 0 1.00213 0.278244
1000 0 1.00212 0.278103
1000 0 1.0024 0.278518
1000 0 1.00212 0.278175
1000 0 1.00268 0.279284
1012.67 1.41077e-08 1.00346 0.276476
1000 0 1.00212 0.278874
1012.75 1.4142e-08 1.00319 0.275647
1000 0 1.00268 0.278873
1000 0 1.00268 0.277915
1000 0 1.0027 0.27709
1012.74 1.38673e-08 1.00321 0.273146
1000 0 1.0024 0.278492
1000 0 1.00268 0.278312
1000 0 1.0027 0.276606
1000 0 1.00268 0.277772
1012.41 1.41101e-08 1.0032 0.275652
1012.62 1.38505e-08 1.00322 0.272149
1012.47 1.3994e-08 1.00321 0.274169
1014.5 1.65087e-08 1.00376 0.265151
1000 0 1.00212 0.278162
1000 0 1.00268 0.277619
1012.65 1.40731e-08 1.00318 0.276943
1012.7 1.40905e-08 1.0032 0.276522
1012.72 1.40143e-08 1.00321 0.275319
1014.46 1.65485e-08 1.00375 0.269889
1014.47 1.65295e-08 1.00375 0.266242
1000 0 1.0027 0.276402
1012.81 1.37378e-08 1.00323 0.271463
1014.49 1.65008e-08 1.00376 0.263302
1014.46 1.65708e-08 1.00376 0.257018
1000 0 1.00213 0.277263
1000 0 1.00213 0.277086
1000 0 1.00213 0.276918
1012.67 1.35658e-08 1.00349 0.272624
1000 0 1.00213 0.277516
1000 0 1.00213 0.277087
1012.5 1.40236e-08 1.00348 0.273926
1000 0 1.00242 0.277265
1012.52 1.3738e-08 1.00348 0.272859
1012.69 1.35942e-08 1.00336 0.272583
1014.48 1.6408e-08 1.00378 0.261469
1000 0 1.00213 0.277672
1013.07 1.35989e-08 1.00354 0.274499
1012.77 1.40759e-08 1.00348 0.274614
1012.7 1.38321e-08 1.00348 0.273334
1014.47 1.65397e-08 1.00377 0.26595
1012.81 1.35134e-08 1.00323 0.27285
1014.47 1.64551e-08 1.00377 0.262755
1014.49 1.63871e-08 1.00378 0.261863
1014.49 1.65906e-08 1.00377 0.255209
1000 0 1.00213 0.278737
1000 0 1.00213 0.27851
1000 0 1.00213 0.277839
1000 0 1.00212 0.278073
1000 0 1.00212 0.278151
1000 0 1.0024 0.278645
1012.3 1.41501e-08 1.00333 0.276406
1000 0 1.0024 0.278288
1012.48 1.41874e-08 1.00334 0.275901
1000 0 1.00212 0.27817
1012.66 1.40794e-08 1.00346 0.276745
1012.74 1.41304e-08 1.00319 0.27599
1014.44 1.654e-08 1.00376 0.272517
1012.76 1.41301e-08 1.00319 0.275237
1014.47 1.65651e-08 1.00376 0.271417
1000 0 1.00267 0.278051
1000 0 1.00268 0.279158
1000 0 1.0027 0.276841
1000 0 1.00268 0.278427
1012.71 1.4064e-08 1.0032 0.275269
1012.72 1.39448e-08 1.00321 0.273893
1012.76 1.3794e-08 1.00322 0.271657
1014.48 1.65156e-08 1.00376 0.265011
1000 0 1.00212 0.27813
1000 0 1.00268 0.278426
1012.29 1.41164e-08 1.00333 0.276476
1012.42 1.41367e-08 1.0032 0.27615
1000 0 1.00242 0.276433
1012.73 1.38056e-08 1.00322 0.271654
1012.45 1.40614e-08 1.00321 0.274951
1014.48 1.65404e-08 1.00375 0.269779
1014.5 1.64985e-08 1.00376 0.262718
1014.49 1.65217e-08 1.00375 0.266453
1014.46 1.65723e-08 1.00376 0.257036
1012.62 1.40632e-08 1.00346 0.276748
1012.7 1.40914e-08 1.0032 0.276732
1014.43 1.6529e-08 1.00374 0.272266
1014.45 1.65497e-08 1.00374 0.270857
1014.46 1.65418e-08 1.00375 0.267998
1014.45 1.65597e-08 1.00376 0.264413
1000 0 1.00213 0.277215
1014.46 1.65641e-08 1.00375 0.258789
1012.87 1.37079e-08 1.00351 0.272012
1014.5 1.6483e-08 1.00378 0.260032
1014.47 1.65811e-08 1.00376 0.255459
1014.38 1.64826e-08 1.00375 0.253923
1013.02 1.3693e-08 1.00354 0.273084
1014.68 1.65352e-08 1.00381 0.268873
1000 0 1.00213 0.277481
1000 0 1.00213 0.277067
1012.74 1.39745e-08 1.00348 0.273916
1000 0 1.00213 0.277512
1012.72 1.35189e-08 1.0035 0.272632
1012.66 1.36804e-08 1.00348 0.272883
1014.46 1.64091e-08 1.00378 0.261474
1000 0 1.00213 0.277903
1013.15 1.36578e-08 1.00354 0.274735
1012.51 1.4122e-08 1.00334 0.274491
1012.5 1.38851e-08 1.00334 0.273216
1014.5 1.65322e-08 1.00377 0.265963
1012.8 1.35909e-08 1.00351 0.272872
1014.48 1.64533e-08 1.00377 0.262856
1014.5 1.63842e-08 1.00378 0.262056
1014.49 1.6593e-08 1.00376 0.254855
1012.9 1.35488e-08 1.00353 0.27356
1013.18 1.36491e-08 1.00356 0.275454
1014.71 1.65138e-08 1.00381 0.271619
1014.48 1.65624e-08 1.00376 0.267756
1014.47 1.65017e-08 1.00377 0.264446
1014.45 1.65509e-08 1.00375 0.25869
1014.55 1.64143e-08 1.00379 0.264202
1014.47 1.65719e-08 1.00376 0.254537
1014.48 1.65921e-08 1.00377 0.254082
1014.42 1.65254e-08 1.00376 0.253205
1000 0 1.00214 0.279117
1000 0 1.00213 0.278907
1000 0 1.00213 0.278687
1013.14 1.37179e-08 1.00355 0.27428
1000 0 1.00214 0.277703
1000 0 1.00213 0.277683
1000 0 1.00212 0.277977
1012.75 1.4142e-08 1.00348 0.276185
1012.67 1.41077e-08 1.00346 0.276738
1000 0 1.00212 0.278169
1000 0 1.00212 0.278177
1012.52 1.41194e-08 1.00346 0.276765
1012.62 1.41722e-08 1.00333 0.276256
1014.48 1.65325e-08 1.00376 0.272527
1012.47 1.41748e-08 1.00348 0.27553
1014.49 1.65561e-08 1.00376 0.271345
1012.6 1.40568e-08 1.00346 0.276765
1014.43 1.65266e-08 1.00376 0.272876
1014.46 1.65516e-08 1.00376 0.272089
1014.46 1.65612e-08 1.00375 0.269234
1014.47 1.65698e-08 1.00376 0.269772
1014.45 1.65583e-08 1.00375 0.266375
1000 0 1.00212 0.278155
1000 0 1.00268 0.279292
1012.65 1.40731e-08 1.00348 0.276444
1012.7 1.40905e-08 1.0032 0.275793
1000 0 1.00213 0.277246
1012.81 1.37378e-08 1.00322 0.271972
1012.72 1.40143e-08 1.00321 0.274601
1014.46 1.65485e-08 1.00375 0.269658
1014.47 1.65295e-08 1.00376 0.266644
1014.49 1.65008e-08 1.00377 0.262393
1014.46 1.65708e-08 1.00376 0.257064
1012.47 1.41034e-08 1.00346 0.276742
1012.58 1.4134e-08 1.0032 0.276405
1014.47 1.65214e-08 1.00375 0.272118
1014.48 1.6541e-08 1.00375 0.27103
1000 0 1.00213 0.277049
1012.82 1.37822e-08 1.00337 0.272186
1014.52 1.64711e-08 1.00378 0.260427
1014.49 1.65337e-08 1.00375 0.267935
1014.45 1.65607e-08 1.00375 0.264079
1014.47 1.65811e-08 1.00376 0.255532
1014.45 1.65654e-08 1.00376 0.259073
1014.38 1.64821e-08 1.00375 0.253976
1013.06 1.37571e-08 1.00354 0.273023
1014.67 1.65228e-08 1.00381 0.268773
1014.43 1.65224e-08 1.00376 0.272883
1014.45 1.65422e-08 1.00374 0.271598
1014.46 1.65647e-08 1.00375 0.269074
1014.45 1.65595e-08 1.00375 0.265692
1014.45 1.65608e-08 1.00376 0.261353
1014.37 1.64727e-08 1.00374 0.261258
1012.94 1.3688e-08 1.00352 0.272321
1014.38 1.64753e-08 1.00374 0.255766
1014.54 1.64643e-08 1.00379 0.261343
1014.47 1.65844e-08 1.00376 0.253218
1014.39 1.64963e-08 1.00375 0.252738
1014.36 1.64555e-08 1.00374 0.252676
1014.63 1.65048e-08 1.0038 0.266665
1014.74 1.65856e-08 1.00381 0.270841
1014.57 1.67054e-08 1.00379 0.263836
1012.77 1.40759e-08 1.00348 0.274678
1000 0 1.00213 0.278232
1013.07 1.35989e-08 1.00354 0.275194
1012.7 1.38321e-08 1.00348 0.273319
1014.47 1.65397e-08 1.00377 0.265978
1012.81 1.35134e-08 1.00351 0.2728
1014.49 1.63871e-08 1.00378 0.262187
1014.47 1.64551e-08 1.00377 0.263012
1014.49 1.65906e-08 1.00376 0.254473
1012.97 1.36149e-08 1.00353 0.273716
1013.29 1.37043e-08 1.00356 0.275895
1014.69 1.64988e-08 1.00381 0.271747
1014.5 1.6555e-08 1.00376 0.267775
1014.49 1.64961e-08 1.00377 0.264514
1014.45 1.65527e-08 1.00375 0.258659
1014.57 1.6416e-08 1.00379 0.264793
1014.47 1.65727e-08 1.00376 0.254767
1014.48 1.6592e-08 1.00377 0.254031
1014.42 1.65251e-08 1.00376 0.252831
1013.36 1.37043e-08 1.00357 0.276602
1014.63 1.64746e-08 1.0038 0.268862
1014.74 1.65451e-08 1.00381 0.273039
1014.61 1.67405e-08 1.00379 0.267449
1014.44 1.65424e-08 1.00375 0.260871
1014.46 1.65607e-08 1.00376 0.25651
1014.38 1.64931e-08 1.00374 0.255243
1014.51 1.66178e-08 1.00378 0.256254
1014.38 1.64917e-08 1.00375 0.250647
1014.4 1.6505e-08 1.00376 0.250845
1014.4 1.65126e-08 1.00375 0.252644
1014.8 1.66149e-08 1.00382 0.277208
1013.56 1.38092e-08 1.00359 0.277452
1000 0 1.00214 0.279312
1000 0 1.00214 0.279235
1000 0 1.00214 0.279086
1013.25 1.37759e-08 1.00357 0.275317
1000 0 1.00214 0.27827
1013.22 1.37838e-08 1.00355 0.273888
1000 0 1.00214 0.277506
1012.76 1.41301e-08 1.00347 0.275512
1012.74 1.41304e-08 1.00347 0.276563
1014.47 1.65651e-08 1.00376 0.271267
1014.44 1.654e-08 1.00376 0.2725
1012.66 1.40794e-08 1.00346 0.276786
1000 0 1.00212 0.278167
1012.18 1.40998e-08 1.00346 0.27676
1014.43 1.65196e-08 1.00376 0.272874
1014.46 1.65444e-08 1.00376 0.272048
1014.45 1.65621e-08 1.00375 0.269213
1014.5 1.65626e-08 1.00376 0.269809
1014.45 1.65595e-08 1.00375 0.266442
1014.41 1.65204e-08 1.00376 0.273003
1014.45 1.65577e-08 1.00375 0.26979
1014.45 1.65615e-08 1.00375 0.268278
1014.39 1.65069e-08 1.00374 0.267426
1014.45 1.65517e-08 1.00375 0.263774
1014.38 1.64884e-08 1.00374 0.264472
1012.62 1.40632e-08 1.00346 0.276723
1012.7 1.40914e-08 1.0032 0.276025
1014.43 1.6529e-08 1.00376 0.271996
1014.45 1.65497e-08 1.00375 0.271148
1000 0 1.00213 0.276863
1012.87 1.37079e-08 1.00323 0.27193
1014.5 1.6483e-08 1.00377 0.260851
1014.46 1.65418e-08 1.00375 0.26785
1014.45 1.65597e-08 1.00375 0.263747
1014.46 1.65641e-08 1.00376 0.259364
1014.47 1.65811e-08 1.00376 0.255555
1014.38 1.64826e-08 1.00375 0.25401
1013.02 1.3693e-08 1.00354 0.272926
1014.68 1.65352e-08 1.00381 0.268223
1014.43 1.65155e-08 1.00376 0.272686
1014.45 1.65347e-08 1.00374 0.271636
1014.45 1.65657e-08 1.00375 0.268962
1014.45 1.65607e-08 1.00375 0.266056
1012.92 1.37587e-08 1.00352 0.272409
1014.55 1.64543e-08 1.00379 0.26116
1014.48 1.65889e-08 1.00376 0.253225
1014.45 1.65619e-08 1.00376 0.261556
1014.37 1.64725e-08 1.00374 0.260941
1014.39 1.64964e-08 1.00375 0.252594
1014.38 1.6475e-08 1.00374 0.255806
1014.36 1.64554e-08 1.00374 0.252356
1014.63 1.6499e-08 1.0038 0.266676
1014.57 1.67087e-08 1.00379 0.263729
1014.72 1.65862e-08 1.00381 0.270752
1014.45 1.65613e-08 1.00375 0.269964
1014.45 1.65602e-08 1.00375 0.267609
1014.39 1.64953e-08 1.00374 0.26746
1014.38 1.64749e-08 1.00374 0.263167
1014.37 1.64717e-08 1.00374 0.257691
1014.35 1.64438e-08 1.00374 0.258527
1014.59 1.64807e-08 1.00379 0.264431
1014.35 1.64463e-08 1.00374 0.25349
1014.48 1.65945e-08 1.00377 0.252821
1014.4 1.65004e-08 1.00375 0.248898
1014.37 1.64727e-08 1.00375 0.250954
1014.33 1.63948e-08 1.00374 0.250351
1014.77 1.66012e-08 1.00381 0.273185
1014.54 1.66645e-08 1.00378 0.25959
1014.61 1.67521e-08 1.00379 0.268904
1014.5 1.66207e-08 1.00378 0.259206
1014.48 1.65624e-08 1.00376 0.2678
1013.18 1.36491e-08 1.00356 0.276155
1012.9 1.35488e-08 1.00353 0.273886
1014.71 1.65138e-08 1.00381 0.271782
1014.47 1.65017e-08 1.00377 0.264563
1014.45 1.65509e-08 1.00375 0.258628
1014.55 1.64143e-08 1.00379 0.265473
1014.48 1.65921e-08 1.00377 0.254096
1014.47 1.65719e-08 1.00376 0.254977
1014.42 1.65254e-08 1.00375 0.252552
1013.39 1.37508e-08 1.00357 0.276857
1014.64 1.64714e-08 1.0038 0.269213
1014.72 1.65394e-08 1.00381 0.273076
1014.61 1.67425e-08 1.00379 0.267611
1014.44 1.65424e-08 1.00375 0.260831
1014.46 1.65626e-08 1.00376 0.2565
1014.38 1.64915e-08 1.00374 0.255246
1014.51 1.66181e-08 1.00378 0.2561
1014.39 1.64923e-08 1.00375 0.250902
1014.4 1.65056e-08 1.00376 0.250581
1014.4 1.65137e-08 1.00375 0.253505
1013.43 1.37603e-08 1.00358 0.277151
1014.76 1.65583e-08 1.00382 0.274722
1014.56 1.66785e-08 1.00379 0.261501
1014.61 1.67579e-08 1.0038 0.270823
1014.53 1.66577e-08 1.00379 0.2627
1014.38 1.65221e-08 1.00374 0.257512
1014.38 1.64804e-08 1.00375 0.252323
1014.33 1.64197e-08 1.00374 0.251761
1014.4 1.65103e-08 1.00376 0.248628
1014.38 1.65034e-08 1.00375 0.248191
1014.36 1.649e-08 1.00375 0.248426
1014.79 1.659e-08 1.00382 0.276723
1014.63 1.68066e-08 1.0038 0.275465
1014.82 1.66424e-08 1.00382 0.277795
1014.8 1.66147e-08 1.00382 0.277364
1013.65 1.38662e-08 1.0033 0.277928
1013.58 1.38421e-08 1.00344 0.277864
1000 0 1.00275 0.278678
1000 0 1.00214 0.279338
1000 0 1.00214 0.279275
1013.45 1.38582e-08 1.00358 0.276432
1000 0 1.00214 0.278985
1013.38 1.38252e-08 1.00357 0.275124
1000 0 1.00214 0.278041
1013.14 1.37179e-08 1.00355 0.27372
1000 0 1.00214 0.277329
1014.47 1.65698e-08 1.00376 0.269836
1014.46 1.65516e-08 1.00376 0.272049
1014.45 1.65583e-08 1.00375 0.266389
1014.46 1.65612e-08 1.00375 0.269196
1014.43 1.65266e-08 1.00376 0.272864
1012.6 1.40568e-08 1.00346 0.276746
1014.46 1.65125e-08 1.00376 0.273002
1014.45 1.65586e-08 1.00375 0.269792
1014.45 1.65625e-08 1.00375 0.268137
1014.39 1.65068e-08 1.00374 0.267376
1014.44 1.65528e-08 1.00375 0.263713
1014.38 1.64884e-08 1.00374 0.264443
1014.45 1.6557e-08 1.00375 0.269957
1014.4 1.65262e-08 1.00374 0.268212
1014.39 1.64972e-08 1.00374 0.26664
1014.37 1.64631e-08 1.00374 0.266644
1014.37 1.64849e-08 1.00374 0.260409
1014.36 1.64413e-08 1.00374 0.262041
1014.43 1.65224e-08 1.00375 0.272501
1014.45 1.65422e-08 1.00374 0.271772
1014.46 1.65647e-08 1.00375 0.26876
1014.45 1.65595e-08 1.00375 0.266452
1012.94 1.3688e-08 1.00352 0.272491
1014.54 1.64643e-08 1.00379 0.26077
1014.47 1.65844e-08 1.00377 0.253211
1014.45 1.65608e-08 1.00376 0.261766
1014.37 1.64727e-08 1.00374 0.260619
1014.38 1.64753e-08 1.00374 0.255847
1014.39 1.64963e-08 1.00375 0.252501
1014.36 1.64555e-08 1.00374 0.252114
1014.63 1.65048e-08 1.0038 0.266784
1014.57 1.67054e-08 1.00379 0.263992
1014.74 1.65856e-08 1.00381 0.270979
1014.45 1.65622e-08 1.00375 0.269804
1014.45 1.65612e-08 1.00375 0.267748
1014.39 1.64951e-08 1.00374 0.267251
1014.38 1.64747e-08 1.00374 0.263457
1014.6 1.6479e-08 1.00379 0.263936
1014.48 1.65956e-08 1.00377 0.252532
1014.4 1.65e-08 1.00375 0.249044
1014.37 1.64714e-08 1.00374 0.258033
1014.35 1.6444e-08 1.00374 0.258235
1014.37 1.64726e-08 1.00375 0.25079
1014.35 1.64466e-08 1.00374 0.253483
1014.33 1.63946e-08 1.00374 0.250583
1014.54 1.66678e-08 1.00378 0.259323
1014.5 1.66213e-08 1.00378 0.259162
1014.76 1.65963e-08 1.00381 0.27308
1014.61 1.67529e-08 1.00379 0.269527
1014.39 1.65214e-08 1.00374 0.268139
1014.38 1.64867e-08 1.00374 0.265756
1014.37 1.64469e-08 1.00374 0.266591
1014.36 1.64573e-08 1.00374 0.260558
1014.35 1.64536e-08 1.00374 0.255537
1014.35 1.64255e-08 1.00373 0.25644
1014.5 1.6622e-08 1.00377 0.254997
1014.34 1.63947e-08 1.00373 0.250574
1014.39 1.64947e-08 1.00376 0.246442
1014.37 1.64861e-08 1.00375 0.246168
1014.34 1.63804e-08 1.00374 0.249523
1014.32 1.6349e-08 1.00373 0.248711
1014.78 1.66187e-08 1.00381 0.273955
1014.6 1.67574e-08 1.00379 0.270608
1014.44 1.65612e-08 1.00377 0.253969
1014.54 1.66722e-08 1.00379 0.265115
1014.46 1.65706e-08 1.00377 0.254651
1013.36 1.37043e-08 1.00357 0.277177
1014.44 1.65424e-08 1.00375 0.260802
1014.74 1.65451e-08 1.00381 0.272994
1014.63 1.64746e-08 1.0038 0.269754
1014.61 1.67405e-08 1.00379 0.267952
1014.46 1.65607e-08 1.00376 0.256484
1014.38 1.64931e-08 1.00374 0.255247
1014.51 1.66178e-08 1.00378 0.255895
1014.4 1.6505e-08 1.00376 0.249959
1014.38 1.64917e-08 1.00375 0.251219
1014.4 1.65126e-08 1.00375 0.253975
1013.49 1.37956e-08 1.00358 0.277327
1014.76 1.65604e-08 1.00382 0.275156
1014.56 1.66803e-08 1.00379 0.262227
1014.62 1.67583e-08 1.0038 0.271112
1014.53 1.66574e-08 1.00378 0.261732
1014.38 1.65281e-08 1.00374 0.257476
1014.38 1.64789e-08 1.00375 0.252348
1014.33 1.64258e-08 1.00374 0.251731
1014.41 1.65126e-08 1.00376 0.248704
1014.38 1.65016e-08 1.00375 0.248598
1014.36 1.64893e-08 1.00375 0.248202
1014.78 1.65753e-08 1.00382 0.276004
1014.63 1.67816e-08 1.0038 0.272041
1014.46 1.65806e-08 1.00377 0.254351
1014.55 1.66918e-08 1.00379 0.267122
1014.49 1.66122e-08 1.00378 0.257244
1014.32 1.62362e-08 1.00374 0.255076
1014.36 1.65181e-08 1.00374 0.24858
1014.27 1.59337e-08 1.00373 0.247897
1014.37 1.6503e-08 1.00376 0.243669
1014.33 1.63719e-08 1.00374 0.245177
1014.78 1.65915e-08 1.00382 0.276815
1014.63 1.67984e-08 1.0038 0.275193
1014.63 1.68073e-08 1.0038 0.275543
1014.61 1.67617e-08 1.0038 0.273802
1014.64 1.68166e-08 1.0038 0.275687
1014.83 1.66698e-08 1.00382 0.278028
1014.82 1.6639e-08 1.00382 0.277748
1013.75 1.39343e-08 1.00331 0.278048
1014.8 1.66149e-08 1.00382 0.277343
1013.66 1.38862e-08 1.0033 0.278212
1000 0 1.00276 0.278675
1013.56 1.38092e-08 1.00329 0.278102
1000 0 1.00245 0.278774
1000 0 1.00214 0.279438
1013.57 1.39396e-08 1.0036 0.27717
1013.53 1.38841e-08 1.00358 0.276141
1000 0 1.00214 0.279181
1000 0 1.00214 0.278632
1013.25 1.37759e-08 1.00357 0.274719
1000 0 1.00214 0.277807
1014.45 1.65517e-08 1.00375 0.263647
1014.45 1.65615e-08 1.00375 0.268116
1014.38 1.64884e-08 1.00374 0.264441
1014.39 1.65069e-08 1.00374 0.267327
1014.45 1.65577e-08 1.00375 0.269795
1014.41 1.65204e-08 1.00376 0.272995
1014.45 1.65584e-08 1.00375 0.26996
1014.4 1.65256e-08 1.00374 0.268246
1014.39 1.64963e-08 1.00374 0.266618
1014.37 1.64624e-08 1.00374 0.2665
1014.37 1.6484e-08 1.00374 0.260394
1014.36 1.64405e-08 1.00374 0.262184
1014.4 1.65318e-08 1.00374 0.268455
1014.37 1.649e-08 1.00374 0.267502
1014.36 1.64629e-08 1.00374 0.265118
1014.29 1.61048e-08 1.00373 0.265801
1014.35 1.64303e-08 1.00374 0.258933
1014.34 1.63489e-08 1.00373 0.261376
1014.45 1.65613e-08 1.00375 0.269655
1014.45 1.65602e-08 1.00375 0.267733
1014.39 1.64953e-08 1.00374 0.267087
1014.38 1.64749e-08 1.00374 0.263753
1014.59 1.64807e-08 1.00379 0.263558
1014.48 1.65945e-08 1.00377 0.252361
1014.4 1.65004e-08 1.00375 0.249174
1014.37 1.64717e-08 1.00374 0.258369
1014.35 1.64438e-08 1.00374 0.25796
1014.35 1.64463e-08 1.00374 0.253478
1014.37 1.64727e-08 1.00374 0.250424
1014.33 1.63948e-08 1.00374 0.250537
1014.54 1.66645e-08 1.00378 0.258778
1014.5 1.66207e-08 1.00378 0.258974
1014.77 1.66012e-08 1.00382 0.272874
1014.61 1.67521e-08 1.00379 0.269248
1014.39 1.65209e-08 1.00374 0.268142
1014.38 1.64861e-08 1.00374 0.265678
1014.36 1.64467e-08 1.00374 0.266512
1014.36 1.64571e-08 1.00374 0.260703
1014.5 1.66224e-08 1.00377 0.255208
1014.39 1.64934e-08 1.00376 0.24672
1014.37 1.64857e-08 1.00375 0.2457
1014.35 1.64535e-08 1.00374 0.255731
1014.35 1.64251e-08 1.00373 0.256397
1014.34 1.63795e-08 1.00374 0.24911
1014.34 1.6395e-08 1.00373 0.250522
1014.32 1.63483e-08 1.00373 0.248849
1014.45 1.65641e-08 1.00377 0.253593
1014.46 1.65719e-08 1.00377 0.254088
1014.54 1.6674e-08 1.00379 0.265438
1014.78 1.6626e-08 1.00381 0.274285
1014.61 1.67621e-08 1.00379 0.27013
1014.36 1.64719e-08 1.00374 0.267198
1014.37 1.6431e-08 1.00374 0.26471
1014.34 1.63644e-08 1.00373 0.25744
1014.31 1.63073e-08 1.00373 0.253303
1014.41 1.65116e-08 1.00376 0.248845
1014.35 1.64108e-08 1.00373 0.245893
1014.36 1.64852e-08 1.00375 0.241819
1014.31 1.63399e-08 1.00374 0.242494
1014.3 1.62144e-08 1.00373 0.247925
1014.82 1.66652e-08 1.00381 0.275549
1014.6 1.67659e-08 1.0038 0.270366
1014.56 1.6711e-08 1.00379 0.268618
1014.42 1.65295e-08 1.00377 0.249462
1014.51 1.66295e-08 1.00378 0.259224
1014.44 1.65186e-08 1.00377 0.250882
1013.43 1.37603e-08 1.00358 0.277459
1014.76 1.65583e-08 1.00381 0.27549
1014.38 1.65221e-08 1.00374 0.257436
1014.61 1.67579e-08 1.0038 0.271894
1014.56 1.66785e-08 1.00379 0.262764
1014.53 1.66577e-08 1.00378 0.260758
1014.38 1.64804e-08 1.00375 0.252377
1014.33 1.64197e-08 1.00374 0.251705
1014.4 1.65103e-08 1.00376 0.248897
1014.36 1.649e-08 1.00375 0.248363
1014.38 1.65034e-08 1.00375 0.248966
1014.77 1.65733e-08 1.00382 0.276159
1014.63 1.67843e-08 1.0038 0.273202
1014.47 1.65812e-08 1.00377 0.254209
1014.56 1.66925e-08 1.00379 0.26729
1014.5 1.6617e-08 1.00378 0.256985
1014.32 1.6207e-08 1.00374 0.255079
1014.36 1.65249e-08 1.00374 0.2486
1014.28 1.59049e-08 1.00373 0.247881
1014.37 1.65043e-08 1.00375 0.243426
1014.33 1.63778e-08 1.00374 0.244362