# vtk DataFile Version 2.0
Wound Healing Simulation
ASCII
DATASET UNSTRUCTURED_GRID
POINTS 3012 float
69.9759 18.75 4
67.2507 60.3285 4
69.976 18.75 2
73.0099 25.446 4
71.1327 20.9142 4
68.6801 16.6661 4
67.8248 19.9262 3.9809
67.2507 60.3286 2
71.1327 54.0858 4
68.6801 58.3339 4
65.6939 62.2254 4
65.3113 59.0007 3.97988
74.6784 42.3946 4
73.7221 47.2057 4
69.9759 18.75 0
73.0099 25.446 2
68.6801 16.6661 2
71.1327 20.9142 2
67.8254 19.9295 2
74.6792 32.6053 4
73.7222 27.7943 4
72.1454 23.1494 4
70.6135 26.2209 3.98047
68.885 21.958 3.98136
67.2507 14.6715 4
66.6362 17.9723 3.98009
65.7944 21.0267 3.9704
67.2507 60.3285 0
71.1327 54.0858 2
68.6801 58.3339 2
65.694 62.2255 2
65.3125 58.9969 2
72.1454 51.8506 4
69.9759 56.25 4
68.8357 53.113 3.9805
64.0165 64.0165 4
66.61 57.1335 3.98066
63.8845 60.7651 3.98033
63.4976 57.7684 3.97147
60.3285 67.2507 4
74.6792 42.3947 2
73.7222 47.2057 2
74.9194 39.9526 4
74.2788 44.8158 4
72.1678 42.0854 3.98004
73.0099 49.554 4
71.2488 46.5979 3.97971
73.0099 25.446 0
71.1327 20.9142 0
68.6801 16.6661 0
67.8248 19.9262 0.0191046
74.6792 32.6053 2
73.7222 27.7943 2
67.2508 14.6715 2
72.1455 23.1494 2
70.6135 26.2214 2
66.6372 17.9764 2
68.8853 21.9601 2
65.7938 21.0277 2
74.9197 35.0474 4
74.2794 30.1841 4
72.1844 32.9433 3.98034
71.2776 28.4313 3.98001
69.8149 24.0595 3.98112
68.3446 26.9521 3.9695
66.76 22.9342 3.96996
65.694 12.7746 4
65.3225 16.1044 3.9796
64.7108 19.1975 3.97114
63.8809 22.0396 3.96683
71.1327 54.0858 0
65.6939 62.2254 0
68.6801 58.3339 0
65.3113 59.0007 0.0201171
72.1455 51.8506 2
69.9759 56.25 2
68.8359 53.111 2
64.0165 64.0165 2
66.6109 57.1298 2
63.8862 60.7617 2
63.4971 57.7681 2
62.2254 65.694 4
58.894 65.4139 3.98963
69.7683 50.9888 3.98028
67.783 55.167 3.98042
66.647 52.2079 3.9691
62.3352 62.427 3.98453
64.6583 56.0296 3.97107
62.1993 59.3982 3.96996
61.8169 56.6739 3.96656
58.3339 68.6801 4
60.3285 67.2508 2
73.7221 47.2057 0
74.6784 42.3946 0
74.9197 39.9526 2
74.2794 44.8159 2
72.1673 42.0854 2
73.0099 49.554 2
71.2486 46.5977 2
75 37.5 4
72.4051 39.8021 3.98062
71.7821 44.3527 3.98006
69.8022 41.7893 3.96955
70.5745 48.8134 3.97984
68.9101 46.0139 3.96916
74.6792 32.6053 0
73.7222 27.7943 0
67.2507 14.6715 0
72.1454 23.1494 0
70.6135 26.2209 0.0195269
68.885 21.958 0.0186392
66.6362 17.9723 0.0199146
65.7944 21.0267 0.029596
74.9197 35.0474 2
74.2794 30.1841 2
72.1839 32.9437 2
71.2775 28.4318 2
65.694 12.7745 2
65.324 16.1086 2
69.815 24.0606 2
68.3445 26.9527 2
64.7103 19.1983 2
66.7596 22.9351 2
63.8803 22.0401 2
72.4129 35.2241 3.98067
71.8035 30.6762 3.98039
69.8382 33.2686 3.96979
68.964 29.0386 3.96949
67.6089 24.9128 3.96964
66.1832 27.6377 3.9671
64.0165 10.9835 4
64.749 23.8335 3.96692
63.889 14.3283 3.9815
63.5098 17.4517 3.97122
62.9004 20.3265 3.96674
62.0603 22.9566 3.96684
60.6832 11.0986 3.98581
57.6112 11.4529 3.97749
72.1454 51.8506 0
69.9759 56.25 0
68.8357 53.113 0.0194998
64.0165 64.0165 0
63.8845 60.7651 0.0196748
66.61 57.1335 0.0193437
63.4976 57.7684 0.0285304
62.2255 65.694 2
58.8954 65.4131 2
69.7683 50.9879 2
67.7835 55.164 2
66.6465 52.2071 2
62.3372 62.4246 2
64.6578 56.0291 2
62.1987 59.3986 2
61.8163 56.6738 2
60.6679 63.9765 3.98688
57.0252 66.7347 3.9911
57.5566 63.6884 3.97948
67.5052 50.1755 3.96886
65.6992 54.1718 3.96959
64.5278 51.3804 3.96607
60.771 60.933 3.97428
62.8144 55.0623 3.96687
60.6498 58.1481 3.96421
60.3183 55.7734 3.96632
56.25 69.9759 4
58.3339 68.6801 2
60.3285 67.2507 0
58.9206 9.65676 3.98737
62.2254 9.30607 4
73.0099 49.554 0
74.2788 44.8158 0
71.2488 46.5979 0.020293
72.1678 42.0854 0.0199642
74.9194 39.9526 0
75 37.5 2
72.405 39.8023 2
71.782 44.3524 2
69.8017 41.789 2
70.5744 48.8131 2
68.9101 46.0134 2
72.4884 37.512 3.98022
70.0395 39.6571 3.96962
69.4284 43.9069 3.96945
67.5855 41.4956 3.9682
68.2636 48.106 3.96885
66.6927 45.4359 3.96743
74.9197 35.0474 0
74.2794 30.1841 0
72.1844 32.9433 0.0196586
71.2776 28.4313 0.0199884
65.694 12.7746 0
65.3225 16.1044 0.0203989
69.8149 24.0595 0.0188822
68.3446 26.9521 0.0304976
66.76 22.9342 0.0300366
64.7108 19.1975 0.0288592
63.8809 22.0396 0.033173
72.4129 35.2243 2
71.8035 30.6768 2
69.8377 33.269 2
68.964 29.0392 2
64.0165 10.9835 2
63.891 14.332 2
63.5093 17.4526 2
67.6087 24.9135 2
66.1833 27.638 2
62.8997 20.3269 2
64.7486 23.834 2
62.0596 22.9571 2
60.6855 11.1012 2
57.6122 11.4514 2
70.0563 35.392 3.9698
69.4652 31.1498 3.9696
67.6466 33.5922 3.96803
66.7601 29.6254 3.96736
65.5138 25.7025 3.96698
64.0879 28.2675 3.96986
62.3409 12.6558 3.98449
62.8156 24.6504 3.968
62.1957 15.7915 3.9719
61.8055 18.6941 3.96651
61.19 21.3563 3.96547
60.3532 23.7518 3.96896
59.2446 12.785 3.97523
55.8738 10.238 3.97975
56.4032 13.1279 3.97406
69.7683 50.9888 0.0197183
62.2254 65.694 0
58.894 65.4139 0.0103664
67.783 55.167 0.0195835
66.647 52.2079 0.0308968
62.3352 62.427 0.0154708
62.1993 59.3982 0.0300356
64.6583 56.0296 0.0289271
61.8169 56.6739 0.0334365
60.6696 63.9749 2
57.0262 66.7343 2
57.5568 63.69 2
67.5048 50.1747 2
65.6986 54.171 2
64.5277 51.3801 2
60.7708 60.9339 2
62.8138 55.0621 2
60.6495 58.1482 2
60.3178 55.7732 2
55.0711 67.9315 3.99177
59.2173 62.3613 3.97551
55.8041 64.908 3.98404
56.3245 62.0807 3.97521
65.3171 49.4033 3.96638
63.6999 53.2876 3.96604
62.3917 50.6359 3.96716
59.3279 59.5471 3.96898
61.0621 54.2968 3.96579
59.2717 56.9944 3.96396
59.2276 55.1666 3.96526
48.1018 68.5774 3.98726
50.9489 69.9312 3.99193
54.0858 71.1327 4
56.25 69.976 2
58.3339 68.6801 0
57.0581 8.33653 3.98875
60.3285 7.74928 4
58.9228 9.65824 2
62.2255 9.30602 2
70.5745 48.8134 0.02016
71.7821 44.3527 0.0199351
68.9101 46.0139 0.0308376
69.8022 41.7893 0.0304547
72.4051 39.8021 0.0193838
75 37.5 0
72.488 37.5122 2
70.0395 39.657 2
69.4283 43.9065 2
67.5855 41.4954 2
68.2635 48.1054 2
66.6923 45.4356 2
70.1275 37.5215 3.96966
67.8254 39.5113 3.96826
67.2081 43.467 3.96785
65.4882 41.2031 3.97201
66.0516 47.4133 3.96691
64.5784 44.8359 3.97031
72.4129 35.2241 0.0193252
71.8035 30.6762 0.0196074
69.8382 33.2686 0.0302064
68.964 29.0386 0.0305119
64.0165 10.9835 0
63.889 14.3283 0.0184985
63.5098 17.4517 0.0287805
67.6089 24.9128 0.0303598
66.1832 27.6377 0.0328962
64.749 23.8335 0.0330819
62.9004 20.3265 0.0332597
62.0603 22.9566 0.0331586
60.6832 11.0986 0.0141945
57.6112 11.4529 0.0225143
70.0562 35.3922 2
69.4651 31.1502 2
67.6468 33.5924 2
66.7603 29.6258 2
62.3431 12.6591 2
62.1954 15.7917 2
61.8047 18.6945 2
65.5136 25.703 2
64.0869 28.2679 2
61.189 21.3567 2
62.8149 24.6509 2
60.353 23.7525 2
59.2454 12.7847 2
56.4038 13.1261 2
55.8744 10.2366 2
67.8635 35.5481 3.96826
67.2546 31.6244 3.96774
65.6415 33.9318 3.97204
64.6013 30.2022 3.97059
63.4892 26.4269 3.96907
62.1488 28.7982 3.97371
60.7735 14.2292 3.9748
60.9607 25.3614 3.97093
60.604 17.1408 3.96653
60.1991 19.8331 3.96387
59.5916 22.2847 3.96596
58.8729 24.3535 3.97144
54.0371 9.13908 3.98178
57.907 14.3447 3.97453
54.7851 12.0215 3.97506
55.3079 14.6671 3.9725
67.5052 50.1755 0.0311425
57.0252 66.7347 0.00890056
60.6679 63.9765 0.0131206
57.5566 63.6884 0.0205152
65.6992 54.1718 0.030406
64.5278 51.3804 0.0339312
60.771 60.933 0.0257173
60.6498 58.1481 0.0357883
62.8144 55.0623 0.0331328
60.3183 55.7734 0.0336755
55.0717 67.9314 2
59.2174 62.3625 2
55.804 64.9091 2
56.324 62.0829 2
65.3169 49.4029 2
63.6993 53.2873 2
62.3917 50.6357 2
59.3273 59.5486 2
61.0622 54.2967 2
59.2719 56.9942 2
59.2277 55.1662 2
53.0431 68.9993 3.99183
53.9665 66.0116 3.98551
57.8769 60.8597 3.97452
54.6829 63.2029 3.97899
55.207 60.5999 3.97415
63.1326 48.645 3.96829
61.7086 52.5606 3.96637
60.1738 49.9916 3.96898
58.0056 58.2466 3.96653
59.2943 53.9274 3.96704
58.092 55.7904 3.9616
50.1086 67.8557 3.98697
47.4627 66.5778 3.98378
46.0555 69.1564 3.98745
48.1018 68.5781 2
48.8029 70.7224 3.99204
50.9493 69.9312 2
51.8506 72.1454 4
54.0858 71.1327 2
56.25 69.9759 0
55.1029 7.14088 3.99035
58.3339 6.31992 4
57.0598 8.33727 2
60.3286 7.74926 2
58.9206 9.65676 0.0126276
62.2254 9.30607 0
68.2636 48.106 0.0311463
69.4284 43.9069 0.030553
66.6927 45.4359 0.0325652
67.5855 41.4956 0.0317999
70.0395 39.6571 0.0303776
72.4884 37.512 0.0197777
70.1271 37.5215 2
67.8253 39.5112 2
67.2088 43.4667 2
65.4871 41.2029 2
66.0517 47.4129 2
64.5772 44.8355 2
67.924 37.5218 3.9683
65.7258 39.3665 3.97228
65.1068 43.0158 3.97147
63.6321 40.9185 3.97652
63.8934 46.7018 3.96926
62.6779 44.196 3.97422
70.0563 35.392 0.0302026
69.4652 31.1498 0.0304037
67.6466 33.5922 0.0319652
66.7601 29.6254 0.0326433
62.3409 12.6558 0.0155138
62.1957 15.7915 0.0280994
61.8055 18.6941 0.0334852
65.5138 25.7025 0.0330233
64.0879 28.2675 0.0301445
62.8156 24.6504 0.0319971
61.19 21.3563 0.0345295
60.3532 23.7518 0.0310433
59.2446 12.785 0.0247741
56.4032 13.1279 0.0259437
55.8738 10.238 0.0202508
67.8632 35.5482 2
67.255 31.6246 2
65.6408 33.932 2
64.6003 30.2026 2
60.7736 14.2296 2
60.6037 17.1406 2
60.1999 19.8331 2
63.4885 26.4273 2
62.1471 28.7988 2
59.5933 22.2852 2
60.9602 25.3621 2
58.8721 24.3546 2
57.907 14.3435 2
55.3082 14.6667 2
54.0376 9.13765 2
54.7857 12.0192 2
65.817 35.6688 3.97224
65.1218 32.162 3.97114
64.185 34.2564 3.97646
62.4637 30.6543 3.97454
61.5529 27.0949 3.97211
60.7042 29.167 3.97721
59.3055 15.6805 3.97085
59.2016 25.8304 3.97438
59.1059 18.3748 3.96419
58.6893 20.8805 3.96299
58.1808 23.1282 3.96658
57.842 24.7047 3.97349
52.1119 8.15581 3.98416
53.0571 11.025 3.97714
56.6698 15.7609 3.97348
53.8061 13.6988 3.97462
54.3672 16.0232 3.97412
55.0711 67.9315 0.00822613
65.3171 49.4033 0.0336208
55.8041 64.908 0.0159633
59.2173 62.3613 0.024491
56.3245 62.0807 0.0247876
63.6999 53.2876 0.0339563
62.3917 50.6359 0.0328392
59.3279 59.5471 0.0310202
59.2717 56.9944 0.0360428
61.0621 54.2968 0.0342129
59.2276 55.1666 0.0347432
53.0436 68.9993 2
53.9665 66.0124 2
57.8762 60.8613 2
54.6823 63.2037 2
55.2068 60.6015 2
63.1319 48.6446 2
61.7094 52.5605 2
60.1736 49.991 2
58.0052 58.2479 2
59.296 53.9271 2
58.0908 55.7895 2
52.0698 66.9985 3.98664
52.9529 64.2149 3.98201
56.6407 59.475 3.97367
53.6781 61.6143 3.97611
[...]
POINT_DATA 3012
SCALARS rho_c_phif_kappa float 4
LOOKUP_TABLE default
1000 0 1.00148 0.261621
1000 0 1.00125 0.261927
1000 0 1.00148 0.261493
1000 0 1.00147 0.261871
1000 0 1.00148 0.261642
1000 0 1.00148 0.26168
1008.68 9.7408e-09 1.00167 0.260868
1000 0 1.00125 0.261958
1000 0 1.00125 0.261975
1000 0 1.00125 0.261857
1000 0 1.00148 0.26137
1008.65 9.56762e-09 1.00179 0.260857
1000 0 1.00147 0.262033
1000 0 1.00147 0.262456
1000 0 1.00148 0.261344
1000 0 1.00147 0.262044
1000 0 1.00148 0.26145
1000 0 1.00148 0.261627
1008.66 9.76059e-09 1.00167 0.260969
1000 0 1.00125 0.26219
1000 0 1.00147 0.261969
1000 0 1.00148 0.261741
1008.63 9.83209e-09 1.00166 0.261353
1008.66 9.77877e-09 1.00167 0.261017
1000 0 1.00148 0.26177
1008.7 9.70223e-09 1.00167 0.260699
1008.99 1.04018e-08 1.00185 0.259672
1000 0 1.00125 0.262043
1000 0 1.00136 0.26178
1000 0 1.00136 0.261645
1000 0 1.00125 0.262121
1008.7 9.59175e-09 1.00179 0.260846
1000 0 1.00148 0.261638
1000 0 1.00148 0.261288
1008.67 9.7925e-09 1.00167 0.260911
1000 0 1.00125 0.262107
1008.65 9.63669e-09 1.00168 0.260984
1008.7 9.5318e-09 1.00179 0.261003
1009.01 1.04185e-08 1.00185 0.259709
1000 0 1.00125 0.262459
1000 0 1.00125 0.262184
1000 0 1.00136 0.262285
1000 0 1.00125 0.262204
1000 0 1.00147 0.262519
1008.59 9.84401e-09 1.00178 0.261436
1000 0 1.00125 0.262464
1008.64 9.87081e-09 1.00167 0.261227
1000 0 1.00147 0.262272
1000 0 1.00148 0.261606
1000 0 1.00148 0.261212
1008.68 9.7408e-09 1.00167 0.261072
1000 0 1.00136 0.262386
1000 0 1.00147 0.262174
1000 0 1.00148 0.261482
1000 0 1.00147 0.261837
1008.51 9.84912e-09 1.00166 0.261271
1008.73 9.72473e-09 1.00167 0.260864
1008.6 9.79605e-09 1.00167 0.261048
1008.99 1.03979e-08 1.00185 0.259573
1000 0 1.00125 0.262226
1000 0 1.00147 0.262028
1008.57 9.82511e-09 1.00167 0.261625
1008.61 9.8414e-09 1.00166 0.261463
1008.65 9.81111e-09 1.00167 0.261183
1008.95 1.03736e-08 1.00184 0.259723
1008.97 1.03905e-08 1.00184 0.259557
1000 0 1.00148 0.261873
1008.74 9.66869e-09 1.00167 0.260575
1009 1.04156e-08 1.00185 0.259661
1008.8 1.01939e-08 1.00183 0.25777
1000 0 1.00125 0.261825
1000 0 1.00125 0.262225
1000 0 1.00125 0.26187
1008.65 9.56762e-09 1.00179 0.26083
1000 0 1.00125 0.261923
1000 0 1.00125 0.261762
1008.61 9.81053e-09 1.00179 0.260971
1000 0 1.00136 0.261829
1008.67 9.6591e-09 1.00179 0.260912
1008.73 9.55399e-09 1.00174 0.260995
1009.01 1.04142e-08 1.00185 0.259748
1000 0 1.00125 0.262337
1008.92 9.5567e-09 1.00181 0.261322
1008.67 9.84294e-09 1.00179 0.261122
1008.66 9.71952e-09 1.00179 0.261047
1008.97 1.03824e-08 1.00184 0.259421
1008.76 9.52006e-09 1.00168 0.261106
1009 1.04093e-08 1.00185 0.259607
1009.03 1.0432e-08 1.00185 0.259846
1008.84 1.02462e-08 1.00183 0.25847
1000 0 1.00125 0.262523
1000 0 1.00125 0.262475
1000 0 1.00125 0.262097
1000 0 1.00125 0.262194
1000 0 1.00125 0.262203
1000 0 1.00136 0.262348
1008.41 9.86246e-09 1.00172 0.261374
1000 0 1.00136 0.262167
1008.52 9.88912e-09 1.00173 0.261311
1000 0 1.00125 0.262221
1008.55 9.82511e-09 1.00178 0.261461
1008.6 9.86046e-09 1.00167 0.26128
1008.94 1.03626e-08 1.00183 0.259715
1008.66 9.86822e-09 1.00167 0.261115
1008.95 1.03686e-08 1.00184 0.259734
1000 0 1.00147 0.262027
1000 0 1.00147 0.262448
1000 0 1.00148 0.261215
1000 0 1.00147 0.261947
1008.63 9.83209e-09 1.00166 0.261169
1008.66 9.77877e-09 1.00167 0.261077
1008.7 9.70223e-09 1.00167 0.261029
1008.99 1.04018e-08 1.00185 0.259486
1000 0 1.00125 0.262195
1000 0 1.00147 0.26226
1008.41 9.84397e-09 1.00172 0.261411
1008.48 9.85959e-09 1.00166 0.261383
1000 0 1.00136 0.261773
1008.78 9.69228e-09 1.00168 0.26084
1008.55 9.82742e-09 1.00167 0.26114
1008.97 1.03705e-08 1.00184 0.259663
1009 1.04108e-08 1.00185 0.259535
1008.98 1.0387e-08 1.00185 0.259552
1008.8 1.01942e-08 1.00183 0.257746
1008.53 9.81689e-09 1.00178 0.261538
1008.58 9.83818e-09 1.00166 0.261517
1008.94 1.03648e-08 1.00184 0.2598
1008.95 1.0369e-08 1.00184 0.25975
1008.96 1.03807e-08 1.00184 0.259568
1008.77 1.01499e-08 1.00182 0.258044
1000 0 1.00125 0.26226
1008.79 1.01759e-08 1.00182 0.257714
1008.79 9.64062e-09 1.0018 0.260777
1009.02 1.04327e-08 1.00185 0.259598
1008.82 1.02147e-08 1.00183 0.257894
1008.78 1.01611e-08 1.00182 0.255955
1008.89 9.61458e-09 1.00181 0.261296
1009.03 1.04588e-08 1.00185 0.261217
1000 0 1.00125 0.261919
1000 0 1.00125 0.261815
1008.67 9.7925e-09 1.00179 0.261014
1000 0 1.00125 0.262324
1008.7 9.5318e-09 1.0018 0.260871
1008.65 9.63669e-09 1.00179 0.260903
1009.01 1.04185e-08 1.00185 0.259779
1000 0 1.00125 0.262393
1008.92 9.5659e-09 1.00181 0.261412
1008.58 9.85976e-09 1.00173 0.261095
1008.64 9.73986e-09 1.00173 0.260998
1008.98 1.03791e-08 1.00184 0.25942
1008.77 9.53652e-09 1.0018 0.260992
1009 1.04052e-08 1.00185 0.259648
1009.02 1.04286e-08 1.00185 0.259891
1008.84 1.0247e-08 1.00183 0.258391
1008.84 9.53292e-09 1.0018 0.26113
1009 9.58037e-09 1.00181 0.261447
1009.04 1.04541e-08 1.00185 0.26142
1008.95 1.03732e-08 1.00184 0.259505
1008.98 1.03957e-08 1.00184 0.259449
1008.78 1.01736e-08 1.00182 0.257481
1009.04 1.04442e-08 1.00185 0.260478
1008.83 1.0223e-08 1.00183 0.257981
1008.86 1.02686e-08 1.00184 0.258613
1008.82 1.02076e-08 1.00183 0.25709
1000 0 1.00125 0.262529
1000 0 1.00125 0.262497
1000 0 1.00125 0.262456
1008.96 9.62429e-09 1.00181 0.261422
1000 0 1.00125 0.262349
1000 0 1.00125 0.262033
1000 0 1.00125 0.26215
1008.64 9.87081e-09 1.00178 0.261407
1008.59 9.84401e-09 1.00178 0.261504
1000 0 1.00125 0.26222
1000 0 1.00125 0.262214
1008.53 9.84273e-09 1.00178 0.261477
1008.6 9.87815e-09 1.00173 0.261368
1008.97 1.03592e-08 1.00183 0.259716
1008.54 9.8855e-09 1.00178 0.261271
1008.96 1.03653e-08 1.00184 0.259723
1008.55 9.81159e-09 1.00178 0.26149
1008.94 1.03585e-08 1.00183 0.259683
1008.95 1.03666e-08 1.00183 0.259755
1008.77 1.01413e-08 1.00182 0.258356
1008.95 1.03698e-08 1.00184 0.259635
1008.77 1.01437e-08 1.00182 0.258059
1000 0 1.00125 0.262196
1000 0 1.00147 0.262512
1008.57 9.82511e-09 1.00177 0.261466
1008.61 9.8414e-09 1.00166 0.261276
1000 0 1.00125 0.262003
1008.74 9.66869e-09 1.00168 0.261105
1008.65 9.81111e-09 1.00167 0.261092
1008.95 1.03736e-08 1.00184 0.259596
1008.97 1.03905e-08 1.00185 0.25955
1009 1.04156e-08 1.00185 0.259411
1008.8 1.01939e-08 1.00183 0.257719
1008.5 9.83462e-09 1.00178 0.261507
1008.57 9.85595e-09 1.00166 0.261431
1008.97 1.03613e-08 1.00183 0.259765
1008.97 1.03657e-08 1.00184 0.259765
1000 0 1.00125 0.262241
1008.81 9.66007e-09 1.00174 0.260922
1009.01 1.04286e-08 1.00185 0.259618
1008.97 1.03776e-08 1.00184 0.259539
1008.77 1.01502e-08 1.00182 0.257918
1008.82 1.02153e-08 1.00183 0.257845
1008.79 1.01762e-08 1.00183 0.257741
1008.78 1.01614e-08 1.00182 0.255978
1008.9 9.62926e-09 1.00181 0.261188
1009.03 1.04556e-08 1.00185 0.261217
1008.94 1.03608e-08 1.00183 0.259724
1008.95 1.0366e-08 1.00184 0.259824
1008.77 1.01421e-08 1.00182 0.258523
1008.77 1.01438e-08 1.00182 0.257966
1008.78 1.01611e-08 1.00182 0.257716
1008.75 1.01282e-08 1.00182 0.256331
1008.83 9.61871e-09 1.0018 0.261078
1008.77 1.01473e-08 1.00182 0.255823
1009.03 1.04497e-08 1.00185 0.260113
1008.84 1.0239e-08 1.00183 0.258201
1008.8 1.018e-08 1.00183 0.256183
1008.78 1.01562e-08 1.00182 0.254496
1009.03 1.04543e-08 1.00185 0.260927
1009.03 1.04609e-08 1.00185 0.261649
1008.87 1.02957e-08 1.00184 0.260417
1008.67 9.84294e-09 1.00179 0.261155
1000 0 1.00125 0.26242
1008.92 9.5567e-09 1.00181 0.26151
1008.66 9.71952e-09 1.00179 0.260927
1008.97 1.03824e-08 1.00184 0.259424
1008.76 9.52006e-09 1.0018 0.261144
1009.03 1.0432e-08 1.00185 0.259933
1009 1.04093e-08 1.00185 0.259682
1008.84 1.02462e-08 1.00183 0.258321
1008.84 9.54575e-09 1.0018 0.261256
1008.99 9.58835e-09 1.00181 0.261477
1009.04 1.04512e-08 1.00185 0.261466
1008.97 1.03701e-08 1.00184 0.259493
1008.99 1.0392e-08 1.00184 0.259465
1008.78 1.0174e-08 1.00182 0.257507
1009.03 1.04407e-08 1.00185 0.260492
1008.83 1.02236e-08 1.00183 0.258042
1008.86 1.02694e-08 1.00184 0.258625
1008.82 1.02077e-08 1.00183 0.256931
1009.07 9.60567e-09 1.00182 0.261435
1009.04 1.04475e-08 1.00185 0.261079
1009.03 1.04558e-08 1.00185 0.261848
1008.88 1.03073e-08 1.00184 0.260651
1008.77 1.01624e-08 1.00182 0.257544
1008.8 1.01955e-08 1.00183 0.257602
1008.77 1.01233e-08 1.00182 0.25524
1008.87 1.02895e-08 1.00184 0.259457
1008.8 1.01806e-08 1.00183 0.255887
1008.84 1.02318e-08 1.00184 0.257217
1008.82 1.01924e-08 1.00183 0.255939
1009 1.04597e-08 1.00185 0.262147
1009.21 9.65562e-09 1.00182 0.261302
1000 0 1.00125 0.262536
1000 0 1.00125 0.262509
1000 0 1.00125 0.262478
1009.04 9.64964e-09 1.00181 0.261477
1000 0 1.00125 0.262416
1008.97 9.63586e-09 1.00181 0.261335
1000 0 1.00125 0.262322
1008.66 9.86822e-09 1.00178 0.261294
1008.6 9.86046e-09 1.00178 0.261484
1008.95 1.03686e-08 1.00184 0.259712
1008.94 1.03626e-08 1.00183 0.259719
1008.55 9.82511e-09 1.00178 0.261504
1000 0 1.00125 0.262222
1008.33 9.83099e-09 1.00178 0.261496
1008.94 1.03553e-08 1.00183 0.259684
1008.94 1.03633e-08 1.00183 0.259751
1008.76 1.01415e-08 1.00182 0.25835
1008.97 1.03666e-08 1.00184 0.259618
1008.77 1.01439e-08 1.00182 0.258061
1008.93 1.03579e-08 1.00183 0.259692
1008.76 1.01441e-08 1.00182 0.258446
1008.77 1.01432e-08 1.00182 0.258253
1008.74 1.01101e-08 1.00182 0.25702
1008.77 1.01484e-08 1.00182 0.257784
1008.75 1.01267e-08 1.00182 0.256467
1008.53 9.81689e-09 1.00178 0.261479
1008.58 9.83818e-09 1.00166 0.261332
1008.94 1.03648e-08 1.00183 0.259727
1008.95 1.0369e-08 1.00184 0.259772
1000 0 1.00125 0.262211
1008.79 9.64062e-09 1.00168 0.260909
1009.02 1.04327e-08 1.00186 0.259622
1008.96 1.03807e-08 1.00184 0.259507
1008.77 1.01499e-08 1.00182 0.257786
1008.79 1.01759e-08 1.00183 0.257769
1008.82 1.02147e-08 1.00183 0.257789
1008.78 1.01611e-08 1.00182 0.255997
1008.89 9.61458e-09 1.00181 0.261092
1009.03 1.04588e-08 1.00185 0.261212
1008.94 1.03575e-08 1.00183 0.259703
1008.94 1.0363e-08 1.00184 0.259792
1008.76 1.01422e-08 1.00182 0.258484
1008.77 1.0144e-08 1.00182 0.258078
1008.84 9.63587e-09 1.0018 0.260979
1009.03 1.04455e-08 1.00185 0.260058
1008.84 1.02402e-08 1.00183 0.258265
1008.78 1.01613e-08 1.00183 0.257773
1008.75 1.01282e-08 1.00182 0.256185
1008.8 1.01805e-08 1.00183 0.256002
1008.77 1.01475e-08 1.00182 0.255825
1008.78 1.01564e-08 1.00182 0.254386
1009.03 1.04513e-08 1.00185 0.260975
1008.87 1.0296e-08 1.00184 0.260498
1009.02 1.04577e-08 1.00185 0.261583
1008.76 1.01434e-08 1.00182 0.258541
1008.77 1.01436e-08 1.00182 0.258321
1008.75 1.01169e-08 1.00182 0.25733
1008.75 1.01204e-08 1.00182 0.256313
1008.76 1.01361e-08 1.00182 0.255797
1008.75 1.01231e-08 1.00182 0.25441
1009.04 1.04542e-08 1.00185 0.260624
1008.77 1.01398e-08 1.00182 0.253861
1008.86 1.0267e-08 1.00184 0.259072
1008.82 1.02058e-08 1.00183 0.256192
1008.79 1.01654e-08 1.00183 0.254314
1008.77 1.0156e-08 1.00182 0.252652
1009.02 1.04612e-08 1.00185 0.261996
1008.87 1.02902e-08 1.00184 0.260436
1008.87 1.02991e-08 1.00184 0.260704
1008.88 1.02671e-08 1.00184 0.259897
1008.95 1.03732e-08 1.00184 0.259485
1009 9.58037e-09 1.00181 0.261493
1008.84 9.53292e-09 1.0018 0.261399
1009.04 1.04541e-08 1.00185 0.261518
1008.98 1.03957e-08 1.00184 0.259481
1008.78 1.01736e-08 1.00182 0.25753
1009.04 1.04442e-08 1.00185 0.260499
1008.86 1.02686e-08 1.00184 0.258611
1008.83 1.0223e-08 1.00183 0.258108
1008.82 1.02076e-08 1.00183 0.256775
1009.07 9.61279e-09 1.00182 0.261432
1009.03 1.04446e-08 1.00185 0.261079
1009.03 1.04534e-08 1.00185 0.261946
1008.88 1.03076e-08 1.00184 0.260612
1008.77 1.01626e-08 1.00182 0.257558
1008.8 1.01961e-08 1.00183 0.257635
1008.77 1.01233e-08 1.00182 0.255239
1008.87 1.02902e-08 1.00184 0.259487
1008.8 1.0181e-08 1.00183 0.25603
1008.84 1.0232e-08 1.00184 0.257071
1008.82 1.01927e-08 1.00183 0.255976
1009.14 9.62837e-09 1.00182 0.261375
1009.03 1.0456e-08 1.00185 0.262176
1008.88 1.02998e-08 1.00184 0.260312
1008.88 1.03088e-08 1.00184 0.261193
1008.89 1.02799e-08 1.00184 0.259693
1008.75 1.0087e-08 1.00182 0.255419
1008.78 1.01634e-08 1.00182 0.255206
1008.77 1.018e-08 1.00182 0.25308
1008.87 1.02625e-08 1.00184 0.257811
1008.8 1.01698e-08 1.00183 0.25358
1008.83 1.01858e-08 1.00183 0.255501
1009.01 1.04575e-08 1.00185 0.262203
1008.86 1.02993e-08 1.00184 0.262441
1008.99 1.04621e-08 1.00185 0.262114
1009 1.04583e-08 1.00185 0.262155
1009.27 9.68328e-09 1.0017 0.261588
1009.2 9.66251e-09 1.00176 0.261532
1000 0 1.00149 0.261891
1000 0 1.00125 0.262524
1000 0 1.00125 0.262498
1009.13 9.68472e-09 1.00182 0.26151
1000 0 1.00125 0.262465
1009.04 9.65932e-09 1.00181 0.261428
1000 0 1.00125 0.2624
1008.96 9.62429e-09 1.00181 0.261255
1000 0 1.00125 0.262295
1008.95 1.03698e-08 1.00184 0.259603
1008.95 1.03666e-08 1.00183 0.259746
1008.77 1.01437e-08 1.00182 0.258058
1008.77 1.01413e-08 1.00182 0.258343
1008.94 1.03585e-08 1.00183 0.259684
1008.55 9.81159e-09 1.00178 0.261476
1008.97 1.03543e-08 1.00183 0.25969
1008.76 1.01441e-08 1.00182 0.25844
1008.77 1.01434e-08 1.00182 0.258235
1008.74 1.01098e-08 1.00182 0.256913
1008.77 1.01486e-08 1.00182 0.257779
1008.75 1.01266e-08 1.00182 0.25649
1008.77 1.01476e-08 1.00182 0.258486
1008.74 1.0086e-08 1.00182 0.25733
1008.75 1.01147e-08 1.00182 0.25662
1008.75 1.01148e-08 1.00182 0.255972
1008.75 1.0119e-08 1.00182 0.256
1008.75 1.00988e-08 1.00182 0.254247
1008.94 1.03608e-08 1.00183 0.259687
1008.95 1.0366e-08 1.00184 0.259765
1008.77 1.01421e-08 1.00182 0.25844
1008.77 1.01438e-08 1.00182 0.258188
1008.83 9.61871e-09 1.0018 0.260887
1009.03 1.04497e-08 1.00185 0.26001
1008.84 1.0239e-08 1.00183 0.258341
1008.78 1.01611e-08 1.00183 0.257836
1008.75 1.01282e-08 1.00182 0.25604
1008.77 1.01473e-08 1.00182 0.255827
1008.8 1.018e-08 1.00183 0.255838
1008.78 1.01562e-08 1.00182 0.25428
1009.03 1.04543e-08 1.00185 0.261019
1008.87 1.02957e-08 1.00184 0.260557
1009.03 1.04609e-08 1.00185 0.261533
1008.77 1.01435e-08 1.00182 0.258511
1008.77 1.01438e-08 1.00182 0.258273
1008.75 1.01166e-08 1.00182 0.257264
1008.75 1.01202e-08 1.00182 0.256381
1009.03 1.04502e-08 1.00185 0.260636
1008.86 1.02669e-08 1.00184 0.259068
1008.82 1.02073e-08 1.00183 0.256333
1008.76 1.0136e-08 1.00182 0.255906
1008.75 1.01228e-08 1.00182 0.254298
1008.79 1.01655e-08 1.00183 0.25416
1008.77 1.01397e-08 1.00182 0.253885
1008.77 1.01559e-08 1.00182 0.252612
1008.87 1.02913e-08 1.00184 0.260412
1008.88 1.02673e-08 1.00184 0.259876
1009.02 1.04588e-08 1.00185 0.261943
1008.87 1.0299e-08 1.00184 0.260787
1008.74 1.009e-08 1.00182 0.257429
1008.75 1.0113e-08 1.00182 0.256948
1008.75 1.01203e-08 1.00181 0.256285
1008.75 1.01245e-08 1.00181 0.254024
1008.76 1.0128e-08 1.00182 0.254087
1008.75 1.01315e-08 1.00182 0.253471
1008.87 1.02834e-08 1.00184 0.260011
1008.76 1.01555e-08 1.00182 0.251894
1008.85 1.02388e-08 1.00184 0.25729
1008.81 1.01727e-08 1.00183 0.254058
1008.79 1.0188e-08 1.00182 0.252711
1008.76 1.0148e-08 1.00182 0.252049
1009.01 1.04618e-08 1.00185 0.262153
1008.87 1.02996e-08 1.00184 0.261175
1008.87 1.02618e-08 1.00184 0.259772
1008.89 1.02773e-08 1.00184 0.259898
1008.88 1.02685e-08 1.00184 0.259516
1009.07 9.60567e-09 1.00182 0.261414
1008.77 1.01624e-08 1.00182 0.257575
1009.03 1.04558e-08 1.00185 0.262063
1009.04 1.04475e-08 1.00185 0.26106
1008.88 1.03073e-08 1.00184 0.260577
1008.8 1.01955e-08 1.00183 0.257661
1008.77 1.01233e-08 1.00182 0.255238
1008.87 1.02895e-08 1.00184 0.259537
1008.84 1.02318e-08 1.00184 0.256879
1008.8 1.01806e-08 1.00183 0.256164
1008.82 1.01924e-08 1.00183 0.256009
1009.14 9.63519e-09 1.00182 0.26135
1009.02 1.04541e-08 1.00185 0.262242
1008.88 1.03008e-08 1.00184 0.260321
1008.88 1.03087e-08 1.00184 0.261208
1008.89 1.02801e-08 1.00184 0.259664
1008.75 1.00875e-08 1.00182 0.255383
1008.78 1.01633e-08 1.00182 0.255214
1008.77 1.01806e-08 1.00182 0.253011
1008.87 1.02624e-08 1.00184 0.257863
1008.8 1.01693e-08 1.00183 0.253737
1008.83 1.01862e-08 1.00183 0.255593
1009.02 1.04563e-08 1.00185 0.262243
1008.87 1.03052e-08 1.00184 0.261848
1008.88 1.02747e-08 1.00184 0.258946
1008.89 1.02899e-08 1.00184 0.260165
1008.89 1.02699e-08 1.00184 0.259277
1008.77 1.02577e-08 1.00182 0.254055
1008.77 1.00674e-08 1.00182 0.252356
1008.74 1.01495e-08 1.00182 0.25078
1008.85 1.02059e-08 1.00184 0.25602
1008.8 1.01898e-08 1.00183 0.253114
1009.01 1.04561e-08 1.00185 0.262216
1008.87 1.03007e-08 1.00184 0.262407
1008.86 1.02995e-08 1.00184 0.262432
1008.89 1.02829e-08 1.00184 0.261826
1008.86 1.02978e-08 1.00184 0.262415
1008.98 1.04647e-08 1.00185 0.26211
1008.99 1.04606e-08 1.00185 0.262116
1009.33 9.71947e-09 1.00171 0.261565
1009 1.04597e-08 1.00185 0.262163
1009.26 9.6895e-09 1.0017 0.261693
1000 0 1.0015 0.261882
1009.21 9.65562e-09 1.0017 0.261678
1000 0 1.00137 0.262046
1000 0 1.00125 0.262515
1009.21 9.72075e-09 1.00182 0.261504
1009.13 9.69232e-09 1.00182 0.261476
1000 0 1.00125 0.262485
1000 0 1.00125 0.262465
1009.04 9.64964e-09 1.00181 0.261371
1000 0 1.00125 0.262371
1008.77 1.01484e-08 1.00182 0.257771
1008.77 1.01432e-08 1.00182 0.258225
1008.75 1.01267e-08 1.00182 0.256518
1008.74 1.01101e-08 1.00182 0.256804
1008.76 1.01441e-08 1.00182 0.258435
1008.93 1.03579e-08 1.00183 0.259684
1008.76 1.01479e-08 1.00182 0.258488
1008.74 1.0086e-08 1.00182 0.25738
1008.75 1.01145e-08 1.00182 0.25662
1008.75 1.01146e-08 1.00182 0.255828
1008.75 1.01189e-08 1.00182 0.25598
1008.74 1.00985e-08 1.00182 0.254282
1008.74 1.00681e-08 1.00182 0.2576
1008.75 1.01326e-08 1.00182 0.256539
1008.75 1.01357e-08 1.00181 0.2548
1008.76 1.03618e-08 1.00182 0.25499
1008.76 1.01428e-08 1.00182 0.254711
1008.77 1.02883e-08 1.00181 0.252858
1008.76 1.01434e-08 1.00182 0.25848
1008.77 1.01436e-08 1.00182 0.258221
1008.75 1.01169e-08 1.00182 0.257205
1008.75 1.01204e-08 1.00182 0.256457
1009.04 1.04542e-08 1.00185 0.260637
1008.86 1.0267e-08 1.00184 0.259057
1008.82 1.02058e-08 1.00183 0.256474
1008.76 1.01361e-08 1.00182 0.256013
1008.75 1.01231e-08 1.00182 0.254188
1008.77 1.01398e-08 1.00182 0.253911
1008.79 1.01654e-08 1.00183 0.253971
1008.77 1.0156e-08 1.00182 0.252572
1008.87 1.02902e-08 1.00184 0.260399
1008.88 1.02671e-08 1.00184 0.259867
1009.02 1.04612e-08 1.00185 0.261888
1008.87 1.02991e-08 1.00184 0.260853
1008.74 1.009e-08 1.00182 0.257433
1008.74 1.0113e-08 1.00182 0.256936
1008.74 1.01204e-08 1.00181 0.25627
1008.75 1.01249e-08 1.00181 0.254205
1008.87 1.0284e-08 1.00184 0.259971
1008.85 1.02387e-08 1.00184 0.257464
1008.81 1.01737e-08 1.00183 0.253944
1008.76 1.01283e-08 1.00182 0.254217
1008.75 1.0132e-08 1.00182 0.253377
1008.79 1.01881e-08 1.00182 0.252654
1008.76 1.01559e-08 1.00182 0.251905
1008.76 1.01481e-08 1.00182 0.251996
1008.87 1.02615e-08 1.00184 0.259745
1008.88 1.0268e-08 1.00184 0.259466
1008.89 1.02775e-08 1.00184 0.259909
1009.01 1.04598e-08 1.00185 0.262099
1008.87 1.02997e-08 1.00184 0.261219
1008.76 1.01815e-08 1.00182 0.256428
1008.75 1.01087e-08 1.00181 0.255366
1008.74 1.01014e-08 1.00181 0.252627
1008.74 1.01479e-08 1.00182 0.252568
1008.87 1.02595e-08 1.00184 0.258911
1008.74 1.01289e-08 1.00182 0.249967
1008.84 1.01943e-08 1.00183 0.255484
1008.81 1.02223e-08 1.00183 0.251761
1008.78 1.02461e-08 1.00182 0.251363
1009 1.04644e-08 1.00185 0.262179
1008.87 1.03016e-08 1.00184 0.261571
1008.89 1.0276e-08 1.00184 0.260436
1008.87 1.02539e-08 1.00184 0.259138
1008.89 1.02748e-08 1.00184 0.259294
1008.87 1.02655e-08 1.00184 0.25884
1009.14 9.62837e-09 1.00182 0.26132
1009.03 1.0456e-08 1.00185 0.262314
1008.75 1.0087e-08 1.00182 0.255344
1008.88 1.03088e-08 1.00184 0.26122
1008.88 1.02998e-08 1.00184 0.260327
1008.89 1.02799e-08 1.00184 0.259635
1008.78 1.01634e-08 1.00182 0.255226
1008.77 1.018e-08 1.00182 0.252953
1008.87 1.02625e-08 1.00184 0.257912
1008.83 1.01858e-08 1.00183 0.255666
1008.8 1.01698e-08 1.00183 0.253881
1009.02 1.04546e-08 1.00185 0.262272
1008.87 1.03053e-08 1.00184 0.261891
1008.88 1.0275e-08 1.00184 0.259002
1008.89 1.02897e-08 1.00184 0.260187
1008.89 1.02704e-08 1.00184 0.259168
1008.77 1.02543e-08 1.00182 0.254
1008.77 1.00695e-08 1.00182 0.252402
1008.74 1.01458e-08 1.00182 0.250702
1008.85 1.02068e-08 1.00184 0.255961
1008.8 1.01927e-08 1.00183 0.253098