# vtk DataFile Version 2.0
Wound Healing Simulation
ASCII
DATASET UNSTRUCTURED_GRID
POINTS 3012 float
69.9759 18.75 4
67.2507 60.3285 4
69.976 18.75 2
73.0099 25.446 4
71.1327 20.9142 4
68.6801 16.6661 4
67.8268 19.9169 3.99157
67.2507 60.3286 2
71.1327 54.0858 4
68.6801 58.3339 4
65.6939 62.2254 4
65.3133 59.0091 3.99271
74.6784 42.3946 4
73.7221 47.2057 4
69.9759 18.75 0
73.0099 25.446 2
68.6801 16.6661 2
71.1327 20.9142 2
67.8268 19.9167 2
74.6792 32.6053 4
73.7222 27.7943 4
72.1454 23.1494 4
70.6165 26.2153 3.98979
68.8874 21.9496 3.99095
67.2507 14.6715 4
66.6381 17.9628 3.99225
65.8045 21.0108 3.98715
67.2507 60.3285 0
71.1327 54.0858 2
68.6801 58.3339 2
65.694 62.2255 2
65.3133 59.0093 2
72.1454 51.8506 4
69.9759 56.25 4
68.8384 53.1215 3.99101
64.0165 64.0165 4
66.6118 57.1425 3.99235
63.8867 60.7725 3.99309
63.505 57.7887 3.988
60.3285 67.2507 4
74.6792 42.3947 2
73.7222 47.2057 2
74.9194 39.9526 4
74.2788 44.8158 4
72.1711 42.0876 3.9894
73.0099 49.554 4
71.2522 46.6025 3.98994
73.0099 25.446 0
71.1327 20.9142 0
68.6801 16.6661 0
67.8268 19.9169 0.00842964
74.6792 32.6053 2
73.7222 27.7943 2
67.2508 14.6715 2
72.1455 23.1494 2
70.6165 26.2151 2
66.6381 17.9626 2
68.8874 21.9494 2
65.8045 21.0108 2
74.9197 35.0474 4
74.2794 30.1841 4
72.1875 32.9402 3.98951
71.2807 28.4267 3.98945
69.8177 24.0525 3.99036
68.3559 26.9428 3.98581
66.7708 22.9209 3.98686
65.694 12.7746 4
65.3246 16.0954 3.99274
64.7199 19.1784 3.98758
63.9006 22.0147 3.98544
71.1327 54.0858 0
65.6939 62.2254 0
68.6801 58.3339 0
65.3133 59.0091 0.00729276
72.1455 51.8506 2
69.9759 56.25 2
68.8384 53.1217 2
64.0165 64.0165 2
66.6118 57.1427 2
63.8867 60.7727 2
63.505 57.7889 2
62.2254 65.694 4
58.8937 65.4181 3.99331
69.7714 50.996 3.99045
67.7852 55.1764 3.99177
66.6585 52.2218 3.98703
62.3367 62.4328 3.99328
64.667 56.0476 3.98785
62.2057 59.421 3.98852
61.832 56.7043 3.98625
58.3339 68.6801 4
60.3285 67.2508 2
73.7221 47.2057 0
74.6784 42.3946 0
74.9197 39.9526 2
74.2794 44.8159 2
72.1711 42.0875 2
73.0099 49.554 2
71.2522 46.6026 2
75 37.5 4
72.4083 39.8028 3.98913
71.7855 44.3561 3.98975
69.8141 41.7927 3.98543
70.5779 48.8192 3.99012
68.9225 46.0217 3.98595
74.6792 32.6053 0
73.7222 27.7943 0
67.2507 14.6715 0
72.1454 23.1494 0
70.6165 26.2153 0.0102098
68.8874 21.9496 0.00905373
66.6381 17.9628 0.00775396
65.8045 21.0108 0.0128537
74.9197 35.0474 2
74.2794 30.1841 2
72.1875 32.9402 2
71.2807 28.4266 2
65.694 12.7745 2
65.3247 16.0952 2
69.8177 24.0523 2
68.3558 26.9427 2
64.7199 19.1783 2
66.7708 22.9208 2
63.9005 22.0148 2
72.416 35.2221 3.98924
71.8065 30.6724 3.98957
69.8493 33.2643 3.98513
68.9752 29.0312 3.98524
67.6202 24.9016 3.98644
66.2107 27.6218 3.98405
64.0165 10.9835 4
64.7716 23.8119 3.98521
63.8908 14.3207 3.99298
63.5175 17.4294 3.98815
62.9185 20.2978 3.98572
62.1125 22.9174 3.98463
60.6841 11.093 3.9931
57.6123 11.4367 3.98869
72.1454 51.8506 0
69.9759 56.25 0
68.8384 53.1215 0.00899446
64.0165 64.0165 0
63.8867 60.7725 0.00691331
66.6118 57.1425 0.00764651
63.505 57.7887 0.0119972
62.2255 65.694 2
58.8937 65.4183 2
69.7714 50.9962 2
67.7852 55.1766 2
66.6586 52.2218 2
62.3368 62.433 2
64.6671 56.0478 2
62.2057 59.4213 2
61.8321 56.7044 2
60.6687 63.9816 3.99329
57.0241 66.7382 3.99337
57.5575 63.7008 3.98901
67.5173 50.1874 3.98661
65.7099 54.1878 3.98755
64.554 51.4042 3.98513
60.7745 60.9525 3.98897
62.8317 55.0904 3.98637
60.6646 58.1817 3.98631
60.3404 55.8136 3.98543
56.25 69.9759 4
58.3339 68.6801 2
60.3285 67.2507 0
58.921 9.65177 3.99314
62.2254 9.30607 4
73.0099 49.554 0
74.2788 44.8158 0
71.2522 46.6025 0.0100558
72.1711 42.0876 0.0105996
74.9194 39.9526 0
75 37.5 2
72.4082 39.8027 2
71.7855 44.3561 2
69.814 41.7927 2
70.5779 48.8193 2
68.9225 46.0216 2
72.4916 37.5112 3.98914
70.0507 39.6585 3.98494
69.4406 43.9125 3.98575
67.6152 41.5029 3.98365
68.2761 48.1159 3.98626
66.728 45.4507 3.98435
74.9197 35.0474 0
74.2794 30.1841 0
72.1875 32.9402 0.0104911
71.2807 28.4267 0.0105527
65.694 12.7746 0
65.3246 16.0954 0.0072567
69.8177 24.0525 0.00963732
68.3559 26.9428 0.0141924
66.7708 22.9209 0.0131363
64.7199 19.1784 0.0124188
63.9006 22.0147 0.0145617
72.416 35.2221 2
71.8065 30.6724 2
69.8493 33.2643 2
68.9752 29.0311 2
64.0165 10.9835 2
63.8908 14.3205 2
63.5175 17.4292 2
67.6201 24.9015 2
66.2105 27.6217 2
62.9185 20.2978 2
64.7715 23.8119 2
62.1123 22.9175 2
60.6842 11.0928 2
57.6124 11.4364 2
70.0673 35.3895 3.98506
69.4764 31.1439 3.98516
67.6722 33.585 3.98327
66.7884 29.6124 3.98345
65.5399 25.6838 3.98474
64.1695 28.2386 3.9834
62.3421 12.6496 3.99307
62.8786 24.6139 3.98457
62.2012 15.7681 3.98855
61.8222 18.6616 3.98623
61.2343 21.3142 3.98456
60.451 23.6977 3.98445
59.2467 12.7661 3.98871
55.8739 10.2247 3.98879
56.4063 13.0988 3.98596
69.7714 50.996 0.00955166
62.2254 65.694 0
58.8937 65.4181 0.00668616
67.7852 55.1764 0.00822622
66.6585 52.2218 0.0129736
62.3367 62.4328 0.00671569
62.2057 59.421 0.0114806
64.667 56.0476 0.0121478
61.832 56.7043 0.0137539
60.6687 63.9818 2
57.0242 66.7384 2
57.5575 63.7011 2
67.5173 50.1874 2
65.7099 54.1879 2
64.554 51.4042 2
60.7745 60.9528 2
62.8318 55.0905 2
60.6647 58.1818 2
60.3406 55.8137 2
55.0696 67.9346 3.99343
59.2197 62.3781 3.98902
55.8034 64.9166 3.98904
56.3278 62.1022 3.9864
65.3494 49.4246 3.98481
63.7204 53.3135 3.9859
62.4655 50.6762 3.98414
59.3369 59.5762 3.98661
61.0931 54.3366 3.9856
59.2982 57.0393 3.98502
59.257 55.2136 3.98555
48.1018 68.5811 3.98944
50.9477 69.9333 3.99356
54.0858 71.1327 4
56.25 69.976 2
58.3339 68.6801 0
57.058 8.33218 3.99324
60.3285 7.74928 4
58.921 9.6516 2
62.2255 9.30602 2
70.5779 48.8192 0.00987934
71.7855 44.3561 0.0102505
68.9225 46.0217 0.0140494
69.8141 41.7927 0.0145727
72.4083 39.8028 0.0108685
75 37.5 0
72.4915 37.5112 2
70.0506 39.6585 2
69.4406 43.9125 2
67.6151 41.5029 2
68.2761 48.1159 2
66.7279 45.4507 2
70.1387 37.5208 3.98487
67.8518 39.5146 3.9833
67.2418 43.478 3.984
65.5818 41.217 3.98308
66.0868 47.4316 3.98464
64.6785 44.8628 3.98376
72.416 35.2221 0.0107597
71.8065 30.6724 0.0104311
69.8493 33.2643 0.0148692
68.9752 29.0312 0.0147563
64.0165 10.9835 0
63.8908 14.3207 0.00701783
63.5175 17.4294 0.0118475
67.6202 24.9016 0.0135571
66.2107 27.6218 0.0159495
64.7716 23.8119 0.0147874
62.9185 20.2978 0.0142818
62.1125 22.9174 0.0153708
60.6841 11.093 0.0068993
57.6123 11.4367 0.0113123
70.0672 35.3895 2
69.4763 31.1439 2
67.6721 33.5849 2
66.7883 29.6123 2
62.3422 12.6495 2
62.2013 15.7679 2
61.8223 18.6616 2
65.5398 25.6837 2
64.1693 28.2385 2
61.2342 21.3143 2
62.8783 24.614 2
60.4507 23.6979 2
59.2468 12.7659 2
56.4064 13.0986 2
55.874 10.2244 2
67.8875 35.5441 3.9834
67.2819 31.6141 3.98334
65.7217 33.9201 3.98267
64.6864 30.1786 3.98247
63.561 26.3939 3.98411
62.2874 28.7575 3.98368
60.7763 14.2088 3.9887
61.0731 25.3104 3.98445
60.6178 17.1064 3.98655
60.2348 19.7891 3.98507
59.6826 22.2273 3.9838
59.0083 24.2878 3.98479
54.0369 9.12898 3.98902
57.912 14.3152 3.98626
54.7872 12.0002 3.98581
55.3144 14.6295 3.98481
67.5173 50.1874 0.0133938
57.0241 66.7382 0.00663202
60.6687 63.9816 0.00670863
57.5575 63.7008 0.0109901
65.7099 54.1878 0.0124549
64.554 51.4042 0.0148716
60.7745 60.9525 0.0110259
60.6646 58.1817 0.013692
62.8317 55.0904 0.0136276
60.3404 55.8136 0.014573
55.0697 67.9348 2
59.2198 62.3784 2
55.8035 64.9169 2
56.3278 62.1024 2
65.3493 49.4246 2
63.7205 53.3136 2
62.4655 50.6762 2
59.337 59.5764 2
61.0932 54.3366 2
59.2983 57.0394 2
59.2571 55.2136 2
53.0417 69.0019 3.9935
53.9655 66.0177 3.9891
57.8827 60.8858 3.98654
54.6836 63.2158 3.98639
55.2133 60.6302 3.98507
63.2199 48.6825 3.98409
61.7621 52.6016 3.98498
60.3048 50.0478 3.98357
58.0236 58.2837 3.98537
59.346 53.9784 3.98495
58.1387 55.8433 3.98389
50.1081 67.8596 3.98931
47.4622 66.5841 3.9866
46.0559 69.1602 3.98956
48.1019 68.5815 2
48.8021 70.7243 3.9936
50.9478 69.9336 2
51.8506 72.1454 4
54.0858 71.1327 2
56.25 69.9759 0
55.1024 7.13717 3.99333
58.3339 6.31992 4
57.0581 8.33199 2
60.3286 7.74926 2
58.921 9.65177 0.0068551
62.2254 9.30607 0
68.2761 48.1159 0.0137377
69.4406 43.9125 0.0142536
66.728 45.4507 0.0156466
67.6152 41.5029 0.0163516
70.0507 39.6585 0.0150562
72.4916 37.5112 0.0108578
70.1386 37.5208 2
67.8516 39.5147 2
67.2417 43.4781 2
65.5816 41.2171 2
66.0868 47.4316 2
64.6783 44.8628 2
67.9478 37.5214 3.9831
65.813 39.3737 3.983
65.2021 43.0362 3.98325
63.789 40.9382 3.98311
63.9918 46.7346 3.98401
62.8412 44.2334 3.98395
70.0673 35.3895 0.0149392
69.4764 31.1439 0.0148418
67.6722 33.585 0.0167336
66.7884 29.6124 0.016553
62.3421 12.6496 0.00692956
62.2012 15.7681 0.0114524
61.8222 18.6616 0.0137673
65.5399 25.6838 0.0152638
64.1695 28.2386 0.0165961
62.8786 24.6139 0.0154346
61.2343 21.3142 0.0154419
60.451 23.6977 0.015546
59.2467 12.7661 0.0112877
56.4063 13.0988 0.0140353
55.8739 10.2247 0.0112134
67.8874 35.5441 2
67.2817 31.614 2
65.7215 33.9199 2
64.6862 30.1784 2
60.7763 14.2086 2
60.6179 17.1063 2
60.2348 19.7891 2
63.5607 26.3939 2
62.2871 28.7574 2
59.6824 22.2276 2
61.0728 25.3106 2
59.0079 24.2882 2
57.9121 14.315 2
55.3145 14.6294 2
54.037 9.12863 2
54.7872 12 2
65.901 35.6628 3.9827
65.2102 32.1439 3.98232
64.3138 34.2422 3.98175
62.626 30.6192 3.98257
61.6811 27.0481 3.98403
60.8859 29.1181 3.98476
59.3133 15.65 3.98648
59.3649 25.7662 3.98526
59.1309 18.3307 3.98567
58.7561 20.8237 3.98402
58.3107 23.0588 3.98325
58.0011 24.6311 3.9857
52.1116 8.1481 3.98926
53.0579 11.0078 3.98598
56.679 15.7232 3.98537
53.8107 13.6673 3.98425
54.3785 15.9806 3.98446
55.0696 67.9346 0.00656759
65.3494 49.4246 0.0151894
55.8034 64.9166 0.0109594
59.2197 62.3781 0.0109753
56.3278 62.1022 0.0136025
63.7204 53.3135 0.0141048
62.4655 50.6762 0.0158554
59.3369 59.5762 0.013391
59.2982 57.0393 0.0149828
61.0931 54.3366 0.0143975
59.257 55.2136 0.0144543
53.0417 69.0022 2
53.9655 66.018 2
57.8828 60.8861 2
54.6837 63.2161 2
55.2133 60.6304 2
63.2198 48.6824 2
61.7621 52.6015 2
60.3046 50.0476 2
58.0237 58.2839 2
59.3461 53.9783 2
58.1388 55.8433 2
52.069 67.0033 3.98919
52.9525 64.2244 3.98636
[...]
POINT_DATA 3012
SCALARS rho_c_phif_kappa float 4
LOOKUP_TABLE default
1000 0 1.00014 0.234158
1000 0 1.00014 0.234301
1000 0 1.00014 0.234136
1000 0 1.00015 0.234145
1000 0 1.00015 0.234143
1000 0 1.00014 0.234177
1001.34 1.56796e-09 1.00015 0.234224
1000 0 1.00014 0.234302
1000 0 1.00014 0.234239
1000 0 1.00014 0.23428
1000 0 1.00014 0.234197
1001.34 1.56294e-09 1.00015 0.23419
1000 0 1.00015 0.234228
1000 0 1.00015 0.234086
1000 0 1.00014 0.234116
1000 0 1.00015 0.234111
1000 0 1.00014 0.234158
1000 0 1.00015 0.234117
1001.34 1.56813e-09 1.00015 0.234233
1000 0 1.00014 0.234301
1000 0 1.00015 0.234163
1000 0 1.00015 0.234138
1001.34 1.57162e-09 1.00015 0.234219
1001.34 1.5694e-09 1.00015 0.234219
1000 0 1.00014 0.234196
1001.34 1.56643e-09 1.00015 0.234227
1001.04 1.2192e-09 1.00015 0.234362
1000 0 1.00014 0.234302
1000 0 1.00014 0.234167
1000 0 1.00014 0.234213
1000 0 1.00014 0.234319
1001.34 1.563e-09 1.00015 0.234184
1000 0 1.00015 0.234085
1000 0 1.00014 0.234123
1001.34 1.56748e-09 1.00015 0.234236
1000 0 1.00014 0.234331
1001.34 1.56497e-09 1.00015 0.234244
1001.34 1.56102e-09 1.00015 0.234199
1001.04 1.22207e-09 1.00015 0.234343
1000 0 1.00014 0.23436
1000 0 1.00014 0.234321
1000 0 1.00014 0.234173
1000 0 1.00014 0.234386
1000 0 1.00015 0.234122
1001.34 1.57648e-09 1.00015 0.234227
1000 0 1.00014 0.234222
1001.34 1.5739e-09 1.00015 0.234247
1000 0 1.00015 0.234076
1000 0 1.00015 0.234093
1000 0 1.00014 0.234142
1001.34 1.56796e-09 1.00015 0.23424
1000 0 1.00014 0.234268
1000 0 1.00015 0.234129
1000 0 1.00014 0.23418
1000 0 1.00015 0.234108
1001.34 1.5721e-09 1.00015 0.234231
1001.34 1.56653e-09 1.00015 0.234234
1001.34 1.56966e-09 1.00015 0.23423
1001.04 1.21915e-09 1.00015 0.234366
1000 0 1.00014 0.234327
1000 0 1.00015 0.234198
1001.34 1.57556e-09 1.00015 0.234257
1001.34 1.57251e-09 1.00015 0.23423
1001.34 1.57069e-09 1.00015 0.234216
1001.04 1.21675e-09 1.00015 0.234372
1001.04 1.21825e-09 1.00015 0.23437
1000 0 1.00014 0.234213
1001.34 1.5648e-09 1.00015 0.234224
1001.04 1.22027e-09 1.00015 0.234347
1001.1 1.28826e-09 1.00015 0.234386
1000 0 1.00014 0.234245
1000 0 1.00014 0.23432
1000 0 1.00014 0.234283
1001.34 1.56294e-09 1.00015 0.234178
1000 0 1.00014 0.234235
1000 0 1.00014 0.234263
1001.34 1.56776e-09 1.00015 0.234175
1000 0 1.00014 0.234273
1001.34 1.56508e-09 1.00015 0.234185
1001.34 1.56103e-09 1.00015 0.234214
1001.04 1.22199e-09 1.00015 0.234347
1000 0 1.00014 0.234347
1001.35 1.55864e-09 1.00015 0.234192
1001.34 1.57016e-09 1.00015 0.234196
1001.34 1.5661e-09 1.00015 0.234205
1001.04 1.21954e-09 1.00015 0.234384
1001.34 1.55926e-09 1.00015 0.234235
1001.04 1.22078e-09 1.00015 0.234361
1001.04 1.22299e-09 1.00015 0.234327
1001.1 1.28822e-09 1.00015 0.23438
1000 0 1.00014 0.234371
1000 0 1.00014 0.23436
1000 0 1.00014 0.234233
1000 0 1.00014 0.234292
1000 0 1.00014 0.234362
1000 0 1.00014 0.234206
1001.34 1.57715e-09 1.00015 0.234236
1000 0 1.00014 0.234154
1001.34 1.57442e-09 1.00015 0.234206
1000 0 1.00014 0.23437
1001.34 1.57664e-09 1.00015 0.234213
1001.34 1.57527e-09 1.00015 0.234256
1001.04 1.21611e-09 1.00015 0.234313
1001.34 1.57147e-09 1.00015 0.234216
1001.04 1.21596e-09 1.00015 0.234368
1000 0 1.00015 0.234218
1000 0 1.00015 0.23409
1000 0 1.00014 0.234167
1000 0 1.00015 0.234078
1001.34 1.57162e-09 1.00015 0.234243
1001.34 1.5694e-09 1.00015 0.234239
1001.34 1.56643e-09 1.00015 0.234239
1001.04 1.2192e-09 1.00015 0.234371
1000 0 1.00014 0.234349
1000 0 1.00015 0.234163
1001.34 1.5762e-09 1.00015 0.234243
1001.34 1.57308e-09 1.00015 0.23424
1000 0 1.00014 0.234252
1001.34 1.56485e-09 1.00015 0.234232
1001.34 1.57105e-09 1.00015 0.234228
1001.04 1.21671e-09 1.00015 0.234373
1001.04 1.22022e-09 1.00015 0.234353
1001.04 1.21819e-09 1.00015 0.234374
1001.1 1.28839e-09 1.00015 0.234386
1001.34 1.57667e-09 1.00015 0.234237
1001.34 1.5739e-09 1.00015 0.23424
1001.04 1.21578e-09 1.00015 0.234342
1001.04 1.21613e-09 1.00015 0.234372
1001.04 1.21751e-09 1.00015 0.234372
1001.1 1.2877e-09 1.00015 0.234387
1000 0 1.00014 0.23433
1001.1 1.28817e-09 1.00015 0.234393
1001.34 1.56323e-09 1.00015 0.234174
1001.04 1.22095e-09 1.00015 0.234336
1001.1 1.28868e-09 1.00015 0.234377
1001.08 1.27423e-09 1.00015 0.234343
1001.35 1.56185e-09 1.00015 0.234186
1001.03 1.22107e-09 1.00015 0.23433
1000 0 1.00014 0.23423
1000 0 1.00014 0.234264
1001.34 1.56748e-09 1.00015 0.234172
1000 0 1.00014 0.234335
1001.34 1.56102e-09 1.00015 0.234177
1001.34 1.56497e-09 1.00015 0.234176
1001.04 1.22207e-09 1.00015 0.23435
1000 0 1.00014 0.234348
1001.35 1.55858e-09 1.00015 0.234192
1001.34 1.57055e-09 1.00015 0.23421
1001.34 1.56629e-09 1.00015 0.234218
1001.04 1.21954e-09 1.00015 0.234386
1001.34 1.55923e-09 1.00015 0.234183
1001.04 1.22072e-09 1.00015 0.234364
1001.04 1.22289e-09 1.00015 0.234331
1001.1 1.28838e-09 1.00015 0.23438
1001.35 1.55861e-09 1.00015 0.234186
1001.35 1.55893e-09 1.00015 0.234198
1001.03 1.22284e-09 1.00015 0.234322
1001.04 1.21499e-09 1.00015 0.234392
1001.04 1.22131e-09 1.00015 0.234373
1001.1 1.28406e-09 1.00015 0.234386
1001.03 1.22341e-09 1.00015 0.234323
1001.1 1.28954e-09 1.00015 0.234381
1001.1 1.28966e-09 1.00015 0.234372
1001.09 1.27744e-09 1.00015 0.234316
1000 0 1.00014 0.234381
1000 0 1.00014 0.234372
1000 0 1.00014 0.234361
1001.35 1.56159e-09 1.00015 0.234193
1000 0 1.00014 0.234345
1000 0 1.00014 0.234225
1000 0 1.00014 0.234255
1001.34 1.5739e-09 1.00015 0.23418
1001.34 1.57648e-09 1.00015 0.234212
1000 0 1.00014 0.23434
1000 0 1.00014 0.234387
1001.34 1.57731e-09 1.00015 0.234219
1001.34 1.57587e-09 1.00015 0.234215
1001.04 1.21596e-09 1.00015 0.234315
1001.34 1.57192e-09 1.00015 0.234163
1001.04 1.21587e-09 1.00015 0.234369
1001.34 1.57733e-09 1.00015 0.234233
1001.04 1.21807e-09 1.00015 0.234295
1001.04 1.21719e-09 1.00015 0.234342
1001.1 1.28908e-09 1.00015 0.234358
1001.04 1.21783e-09 1.00015 0.234387
1001.1 1.28864e-09 1.00015 0.234408
1000 0 1.00014 0.234378
1000 0 1.00015 0.234123
1001.34 1.57556e-09 1.00015 0.23424
1001.34 1.57251e-09 1.00015 0.234254
1000 0 1.00014 0.234312
1001.34 1.5648e-09 1.00015 0.234238
1001.34 1.57069e-09 1.00015 0.234239
1001.04 1.21675e-09 1.00015 0.234374
1001.04 1.21825e-09 1.00015 0.234378
1001.04 1.22027e-09 1.00015 0.234358
1001.1 1.28826e-09 1.00015 0.234385
1001.34 1.57733e-09 1.00015 0.234229
1001.34 1.5745e-09 1.00015 0.234252
1001.04 1.21564e-09 1.00015 0.234344
1001.04 1.21606e-09 1.00015 0.234373
1000 0 1.00014 0.23433
1001.34 1.56323e-09 1.00015 0.234209
1001.04 1.22088e-09 1.00015 0.234337
1001.04 1.21745e-09 1.00015 0.234374
1001.1 1.28783e-09 1.00015 0.234385
1001.1 1.28884e-09 1.00015 0.234374
1001.1 1.28826e-09 1.00015 0.234394
1001.09 1.27427e-09 1.00015 0.234345
1001.35 1.56182e-09 1.00015 0.234186
1001.03 1.22094e-09 1.00015 0.234329
1001.04 1.21623e-09 1.00015 0.234316
1001.04 1.21572e-09 1.00015 0.234363
1001.1 1.28737e-09 1.00015 0.234372
1001.1 1.2865e-09 1.00015 0.234385
1001.1 1.2877e-09 1.00015 0.23439
1001.08 1.27144e-09 1.00015 0.234365
1001.35 1.56227e-09 1.00015 0.234178
1001.08 1.27269e-09 1.00015 0.234357
1001.03 1.22132e-09 1.00015 0.234334
1001.1 1.28988e-09 1.00015 0.234379
1001.09 1.27511e-09 1.00015 0.234327
1001.09 1.27399e-09 1.00015 0.234289
1001.03 1.22132e-09 1.00015 0.234329
1001.03 1.2208e-09 1.00015 0.234329
1001.1 1.28846e-09 1.00015 0.234403
1001.34 1.57016e-09 1.00015 0.23417
1000 0 1.00014 0.234348
1001.35 1.55864e-09 1.00015 0.234192
1001.34 1.5661e-09 1.00015 0.234174
1001.04 1.21954e-09 1.00015 0.234389
1001.34 1.55926e-09 1.00015 0.234179
1001.04 1.22299e-09 1.00015 0.234334
1001.04 1.22078e-09 1.00015 0.234367
1001.1 1.28822e-09 1.00015 0.234381
1001.35 1.55857e-09 1.00015 0.234186
1001.35 1.55886e-09 1.00015 0.234197
1001.03 1.22268e-09 1.00015 0.234323
1001.04 1.21488e-09 1.00015 0.234394
1001.04 1.22126e-09 1.00015 0.234376
1001.1 1.28411e-09 1.00015 0.234386
1001.03 1.22329e-09 1.00015 0.234324
1001.1 1.28966e-09 1.00015 0.234383
1001.1 1.28982e-09 1.00015 0.234373
1001.09 1.27752e-09 1.00015 0.234313
1001.35 1.55949e-09 1.00015 0.234201
1001.03 1.22314e-09 1.00015 0.234323
1001.03 1.22217e-09 1.00015 0.234321
1001.1 1.28796e-09 1.00015 0.2344
1001.1 1.29421e-09 1.00015 0.234412
1001.1 1.28315e-09 1.00015 0.234372
1001.08 1.28423e-09 1.00015 0.23433
1001.1 1.2896e-09 1.00015 0.234386
1001.09 1.27104e-09 1.00015 0.234309
1001.09 1.27162e-09 1.00015 0.2343
1001.09 1.27129e-09 1.00015 0.23424
1001.02 1.21971e-09 1.00015 0.234312
1001.36 1.56129e-09 1.00015 0.234205
1000 0 1.00014 0.23439
1000 0 1.00014 0.234382
1000 0 1.00014 0.234372
1001.35 1.56165e-09 1.00015 0.234198
1000 0 1.00014 0.234358
1001.35 1.56154e-09 1.00015 0.234193
1000 0 1.00014 0.234344
1001.34 1.57147e-09 1.00015 0.234172
1001.34 1.57527e-09 1.00015 0.234195
1001.04 1.21596e-09 1.00015 0.23437
1001.04 1.21611e-09 1.00015 0.234317
1001.34 1.57664e-09 1.00015 0.234226
1000 0 1.00014 0.234379
1001.34 1.57799e-09 1.00015 0.234231
1001.04 1.21793e-09 1.00015 0.234296
1001.04 1.21708e-09 1.00015 0.234343
1001.1 1.28926e-09 1.00015 0.234358
1001.04 1.21779e-09 1.00015 0.234388
1001.1 1.28883e-09 1.00015 0.234407
1001.04 1.21559e-09 1.00015 0.234297
1001.1 1.28469e-09 1.00015 0.234333
1001.1 1.28417e-09 1.00015 0.234385
1001.08 1.27245e-09 1.00015 0.234364
1001.1 1.28273e-09 1.00015 0.234421
1001.08 1.27047e-09 1.00015 0.234395
1001.34 1.57667e-09 1.00015 0.23422
1001.34 1.5739e-09 1.00015 0.234267
1001.04 1.21578e-09 1.00015 0.234346
1001.04 1.21613e-09 1.00015 0.234375
1000 0 1.00014 0.23433
1001.34 1.56323e-09 1.00015 0.234233
1001.04 1.22095e-09 1.00015 0.234339
1001.04 1.21751e-09 1.00015 0.234376
1001.1 1.2877e-09 1.00015 0.234383
1001.1 1.28817e-09 1.00015 0.234395
1001.1 1.28868e-09 1.00015 0.234372
1001.08 1.27423e-09 1.00015 0.234346
1001.35 1.56185e-09 1.00015 0.234187
1001.03 1.22107e-09 1.00015 0.234328
1001.04 1.21609e-09 1.00015 0.234315
1001.04 1.21565e-09 1.00015 0.234365
1001.1 1.28753e-09 1.00015 0.234371
1001.1 1.28669e-09 1.00015 0.234384
1001.34 1.56225e-09 1.00015 0.23418
1001.03 1.22122e-09 1.00015 0.234332
1001.1 1.29002e-09 1.00015 0.234379
1001.1 1.28784e-09 1.00015 0.234392
1001.08 1.27158e-09 1.00015 0.234364
1001.09 1.27521e-09 1.00015 0.234325
1001.08 1.27277e-09 1.00015 0.234358
1001.09 1.2741e-09 1.00015 0.234287
1001.03 1.22119e-09 1.00015 0.234328
1001.1 1.2886e-09 1.00015 0.234404
1001.03 1.22066e-09 1.00015 0.234328
1001.1 1.28908e-09 1.00015 0.234348
1001.1 1.28768e-09 1.00015 0.234383
1001.08 1.27472e-09 1.00015 0.234359
1001.08 1.27363e-09 1.00015 0.234371
1001.08 1.2744e-09 1.00015 0.234357
1001.09 1.27855e-09 1.00015 0.234344
1001.03 1.22141e-09 1.00015 0.23433
1001.09 1.27857e-09 1.00015 0.234307
1001.1 1.2903e-09 1.00015 0.234396
1001.09 1.2721e-09 1.00015 0.234321
1001.09 1.27467e-09 1.00015 0.23425
1001.09 1.28132e-09 1.00015 0.23423
1001.03 1.22024e-09 1.00015 0.234328
1001.1 1.28835e-09 1.00015 0.234406
1001.1 1.28858e-09 1.00015 0.234399
1001.09 1.27618e-09 1.00015 0.234361
1001.04 1.21499e-09 1.00015 0.234395
1001.35 1.55893e-09 1.00015 0.234197
1001.35 1.55861e-09 1.00015 0.234186
1001.03 1.22284e-09 1.00015 0.234323
1001.04 1.22131e-09 1.00015 0.234379
1001.1 1.28406e-09 1.00015 0.234385
1001.03 1.22341e-09 1.00015 0.234326
1001.1 1.28966e-09 1.00015 0.234373
1001.1 1.28954e-09 1.00015 0.234386
1001.09 1.27744e-09 1.00015 0.234309
1001.35 1.5594e-09 1.00015 0.234201
1001.03 1.22299e-09 1.00015 0.234323
1001.03 1.22201e-09 1.00015 0.234321
1001.1 1.28807e-09 1.00015 0.2344
1001.1 1.29479e-09 1.00015 0.23441
1001.1 1.28336e-09 1.00015 0.234374
1001.08 1.28482e-09 1.00015 0.234329
1001.1 1.2897e-09 1.00015 0.234387
1001.09 1.27115e-09 1.00015 0.234311
1001.09 1.27187e-09 1.00015 0.234298
1001.09 1.27147e-09 1.00015 0.234249
1001.36 1.56025e-09 1.00015 0.234204
1001.03 1.22146e-09 1.00015 0.234318
1001.1 1.28888e-09 1.00015 0.234401
1001.1 1.28917e-09 1.00015 0.234398
1001.09 1.27746e-09 1.00015 0.234356
1001.08 1.25669e-09 1.00015 0.234373
1001.09 1.29294e-09 1.00015 0.234301
1001.08 1.23883e-09 1.00015 0.234261
1001.09 1.2705e-09 1.00015 0.234316
1001.09 1.29602e-09 1.00015 0.234205
1001.09 1.30177e-09 1.00015 0.234212
1001.02 1.22047e-09 1.00015 0.234315
1001.1 1.28885e-09 1.00015 0.234405
1001.02 1.21886e-09 1.00015 0.234308
1001.02 1.21953e-09 1.00015 0.234312
1001.36 1.56227e-09 1.00015 0.234252
1001.36 1.56116e-09 1.00015 0.234234
1000 0 1.00014 0.234305
1000 0 1.00014 0.234391
1000 0 1.00014 0.234383
1001.35 1.56185e-09 1.00015 0.234201
1000 0 1.00014 0.23437
1001.35 1.56158e-09 1.00015 0.234198
1000 0 1.00014 0.234357
1001.35 1.56159e-09 1.00015 0.234194
1000 0 1.00014 0.234344
1001.04 1.21783e-09 1.00015 0.234389
1001.04 1.21719e-09 1.00015 0.234344
1001.1 1.28864e-09 1.00015 0.234406
1001.1 1.28908e-09 1.00015 0.234358
1001.04 1.21807e-09 1.00015 0.234297
1001.34 1.57733e-09 1.00015 0.23423
1001.04 1.21543e-09 1.00015 0.234296
1001.1 1.28477e-09 1.00015 0.234333
1001.1 1.28424e-09 1.00015 0.234385
1001.09 1.27228e-09 1.00015 0.234362
1001.1 1.28277e-09 1.00015 0.234419
1001.08 1.2703e-09 1.00015 0.234394
1001.1 1.29285e-09 1.00015 0.23433
1001.09 1.29256e-09 1.00015 0.234339
1001.08 1.28606e-09 1.00015 0.234383
1001.09 1.28343e-09 1.00015 0.234339
1001.08 1.28751e-09 1.00015 0.234395
1001.09 1.28461e-09 1.00015 0.234353
1001.04 1.21623e-09 1.00015 0.234315
1001.04 1.21572e-09 1.00015 0.234368
1001.1 1.28737e-09 1.00015 0.234371
1001.1 1.2865e-09 1.00015 0.234384
1001.35 1.56227e-09 1.00015 0.234182
1001.03 1.22132e-09 1.00015 0.23433
1001.1 1.28988e-09 1.00015 0.234378
1001.1 1.2877e-09 1.00015 0.234394
1001.08 1.27144e-09 1.00015 0.234363
1001.08 1.27269e-09 1.00015 0.234358
1001.09 1.27511e-09 1.00015 0.234324
1001.09 1.27399e-09 1.00015 0.234285
1001.03 1.22132e-09 1.00015 0.234328
1001.1 1.28846e-09 1.00015 0.234405
1001.03 1.2208e-09 1.00015 0.234327
1001.1 1.28917e-09 1.00015 0.234348
1001.1 1.28776e-09 1.00015 0.234383
1001.08 1.27466e-09 1.00015 0.234358
1001.08 1.27361e-09 1.00015 0.234371
1001.03 1.22129e-09 1.00015 0.234329
1001.1 1.29041e-09 1.00015 0.234395
1001.09 1.27229e-09 1.00015 0.234322
1001.08 1.27437e-09 1.00015 0.234359
1001.09 1.27841e-09 1.00015 0.23434
1001.09 1.27477e-09 1.00015 0.234246
1001.09 1.27843e-09 1.00015 0.23431
1001.09 1.28104e-09 1.00015 0.234227
1001.1 1.28848e-09 1.00015 0.234407
1001.09 1.27627e-09 1.00015 0.234362
1001.03 1.2201e-09 1.00015 0.234327
1001.1 1.2887e-09 1.00015 0.234399
1001.09 1.27087e-09 1.00015 0.234343
1001.08 1.26506e-09 1.00015 0.234368
1001.09 1.26021e-09 1.00015 0.234341
1001.08 1.2602e-09 1.00015 0.234354
1001.09 1.26346e-09 1.00015 0.234318
1001.09 1.25223e-09 1.00015 0.234314
1001.1 1.2896e-09 1.00015 0.234405
1001.09 1.25294e-09 1.00015 0.234254
1001.09 1.26981e-09 1.00015 0.234345
1001.09 1.29241e-09 1.00015 0.234234
1001.09 1.27972e-09 1.00015 0.234172
1001.09 1.26342e-09 1.00015 0.234171
1001.03 1.22105e-09 1.00015 0.234326
1001.1 1.28945e-09 1.00015 0.234399
1001.09 1.27674e-09 1.00015 0.234371
1001.09 1.27654e-09 1.00015 0.234344
1001.09 1.27731e-09 1.00015 0.234314
1001.35 1.55949e-09 1.00015 0.2342
1001.1 1.29421e-09 1.00015 0.234408
1001.03 1.22217e-09 1.00015 0.234321
1001.03 1.22314e-09 1.00015 0.234324
1001.1 1.28796e-09 1.00015 0.234401
1001.1 1.28315e-09 1.00015 0.234375
1001.08 1.28423e-09 1.00015 0.234328
1001.1 1.2896e-09 1.00015 0.234387
1001.09 1.27162e-09 1.00015 0.234297
1001.09 1.27104e-09 1.00015 0.234313
1001.09 1.27129e-09 1.00015 0.234257
1001.36 1.56015e-09 1.00015 0.234203
1001.03 1.2213e-09 1.00015 0.234319
1001.1 1.28896e-09 1.00015 0.234401
1001.1 1.28923e-09 1.00015 0.234399
1001.09 1.27752e-09 1.00015 0.234356
1001.08 1.25418e-09 1.00015 0.234371
1001.09 1.29293e-09 1.00015 0.234299
1001.08 1.23652e-09 1.00015 0.234254
1001.09 1.27081e-09 1.00015 0.234317
1001.09 1.29603e-09 1.00015 0.234214
1001.09 1.30166e-09 1.00015 0.234214
1001.03 1.22123e-09 1.00015 0.234317
1001.1 1.28942e-09 1.00015 0.234399
1001.09 1.27255e-09 1.00015 0.234347
1001.09 1.27239e-09 1.00015 0.234355
1001.09 1.27358e-09 1.00015 0.234306
1001.09 1.27117e-09 1.00015 0.234323
1001.09 1.21371e-09 1.00015 0.234188
1001.09 1.34037e-09 1.00015 0.234126
1001.09 1.30539e-09 1.00015 0.234227
1001.09 1.20322e-09 1.00015 0.234142
1001.02 1.2203e-09 1.00015 0.234315
1001.1 1.28861e-09 1.00015 0.234401
1001.1 1.28891e-09 1.00015 0.234405
1001.09 1.2764e-09 1.00015 0.234368
1001.1 1.28914e-09 1.00015 0.234405
1001.02 1.2179e-09 1.00015 0.234306
1001.02 1.21867e-09 1.00015 0.234309
1001.36 1.56336e-09 1.00015 0.234252
1001.02 1.21971e-09 1.00015 0.234312
1001.36 1.56214e-09 1.00015 0.234261
1000 0 1.00014 0.23431
1001.36 1.56129e-09 1.00015 0.234257
1000 0 1.00014 0.23434
1000 0 1.00014 0.234391
1001.36 1.56181e-09 1.00015 0.234201
1001.35 1.56175e-09 1.00015 0.234201
1000 0 1.00014 0.23438
1000 0 1.00014 0.234369
1001.35 1.56165e-09 1.00015 0.234199
1000 0 1.00014 0.234357
1001.1 1.28273e-09 1.00015 0.234418
1001.1 1.28417e-09 1.00015 0.234385
1001.08 1.27047e-09 1.00015 0.234394
1001.08 1.27245e-09 1.00015 0.234359
1001.1 1.28469e-09 1.00015 0.234333
1001.04 1.21559e-09 1.00015 0.234296
1001.1 1.29309e-09 1.00015 0.234329
1001.09 1.29296e-09 1.00015 0.234338
1001.08 1.28661e-09 1.00015 0.234383
1001.09 1.28451e-09 1.00015 0.234332
1001.08 1.28811e-09 1.00015 0.234394
1001.09 1.28558e-09 1.00015 0.234351
1001.09 1.27591e-09 1.00015 0.234332
1001.09 1.22158e-09 1.00015 0.234322
1001.08 1.24871e-09 1.00015 0.234348
1001.08 1.27139e-09 1.00015 0.234296
1001.08 1.24108e-09 1.00015 0.234337
1001.08 1.27495e-09 1.00015 0.234306
1001.1 1.28908e-09 1.00015 0.234347
1001.1 1.28768e-09 1.00015 0.234383
1001.08 1.27472e-09 1.00015 0.234356
1001.08 1.27363e-09 1.00015 0.234371
1001.03 1.22141e-09 1.00015 0.234328
1001.1 1.2903e-09 1.00015 0.234394
1001.09 1.2721e-09 1.00015 0.234322
1001.08 1.2744e-09 1.00015 0.234362
1001.09 1.27855e-09 1.00015 0.234337
1001.09 1.27857e-09 1.00015 0.234314
1001.09 1.27467e-09 1.00015 0.234243
1001.09 1.28132e-09 1.00015 0.234225
1001.1 1.28835e-09 1.00015 0.234409
1001.09 1.27618e-09 1.00015 0.234362
1001.03 1.22024e-09 1.00015 0.234326
1001.1 1.28858e-09 1.00015 0.234399
1001.09 1.27131e-09 1.00015 0.234343
1001.08 1.26559e-09 1.00015 0.234369
1001.09 1.2611e-09 1.00015 0.234339
1001.08 1.261e-09 1.00015 0.234356
1001.1 1.2897e-09 1.00015 0.234405
1001.09 1.27005e-09 1.00015 0.234346
1001.09 1.29226e-09 1.00015 0.234232
1001.09 1.26414e-09 1.00015 0.234323
1001.09 1.2534e-09 1.00015 0.23431
1001.09 1.27995e-09 1.00015 0.234173
1001.09 1.25395e-09 1.00015 0.234256
1001.09 1.26424e-09 1.00015 0.234168
1001.09 1.2768e-09 1.00015 0.23437
1001.09 1.27744e-09 1.00015 0.234313
1001.09 1.27667e-09 1.00015 0.234344
1001.03 1.22087e-09 1.00015 0.234324
1001.1 1.28955e-09 1.00015 0.234399
1001.09 1.30153e-09 1.00015 0.234309
1001.08 1.31438e-09 1.00015 0.23434
1001.08 1.3437e-09 1.00015 0.234316
1001.08 1.33828e-09 1.00015 0.234272
1001.09 1.2717e-09 1.00015 0.234368
1001.08 1.32829e-09 1.00015 0.234145
1001.09 1.30505e-09 1.00015 0.234265
1001.09 1.21969e-09 1.00015 0.23415
1001.08 1.26688e-09 1.00015 0.234114
1001.02 1.22111e-09 1.00015 0.234322
1001.1 1.28489e-09 1.00015 0.234402
1001.09 1.27366e-09 1.00015 0.234338
1001.09 1.27438e-09 1.00015 0.234319
1001.09 1.27629e-09 1.00015 0.234279
1001.09 1.2747e-09 1.00015 0.234284
1001.36 1.56025e-09 1.00015 0.234203
1001.03 1.22146e-09 1.00015 0.234319
1001.08 1.25669e-09 1.00015 0.234369
1001.1 1.28917e-09 1.00015 0.234399
1001.1 1.28888e-09 1.00015 0.2344
1001.09 1.27746e-09 1.00015 0.234357
1001.09 1.29294e-09 1.00015 0.234297
1001.08 1.23883e-09 1.00015 0.234248
1001.09 1.2705e-09 1.00015 0.234319
1001.09 1.30177e-09 1.00015 0.234215
1001.09 1.29602e-09 1.00015 0.234223
1001.03 1.22107e-09 1.00015 0.234317
1001.1 1.2895e-09 1.00015 0.2344
1001.09 1.27268e-09 1.00015 0.234349
1001.09 1.27251e-09 1.00015 0.234354
1001.09 1.27368e-09 1.00015 0.234304
1001.09 1.28444e-09 1.00015 0.234317
1001.09 1.21337e-09 1.00015 0.23419
1001.09 1.35309e-09 1.00015 0.234126
1001.09 1.30506e-09 1.00015 0.234225
1001.09 1.2035e-09 1.00015 0.234139