# vtk DataFile Version 2.0
Wound Healing Simulation
ASCII
DATASET UNSTRUCTURED_GRID
POINTS 3012 float
69.9759 18.75 4
67.2507 60.3285 4
69.976 18.75 2
73.0099 25.446 4
71.1327 20.9142 4
68.6801 16.6661 4
67.8243 19.9263 3.97964
67.2507 60.3286 2
71.1327 54.0858 4
68.6801 58.3339 4
65.6939 62.2254 4
65.3108 59.0006 3.97863
74.6784 42.3946 4
73.7221 47.2057 4
69.9759 18.75 0
73.0099 25.446 2
68.6801 16.6661 2
71.1327 20.9142 2
67.8249 19.9298 2
74.6792 32.6053 4
73.7222 27.7943 4
72.1454 23.1494 4
70.6131 26.221 3.97924
68.8845 21.958 3.98007
67.2507 14.6715 4
66.6357 17.9725 3.97877
65.7932 21.0275 3.96884
67.2507 60.3285 0
71.1327 54.0858 2
68.6801 58.3339 2
65.694 62.2255 2
65.3122 58.9962 2
72.1454 51.8506 4
69.9759 56.25 4
68.8352 53.113 3.97925
64.0165 64.0165 4
66.6094 57.1333 3.97917
63.8839 60.7648 3.97896
63.4965 57.7672 3.96952
60.3285 67.2507 4
74.6792 42.3947 2
73.7222 47.2057 2
74.9194 39.9526 4
74.2788 44.8158 4
72.1675 42.0856 3.97919
73.0099 49.554 4
71.2483 46.598 3.9786
73.0099 25.446 0
71.1327 20.9142 0
68.6801 16.6661 0
67.8243 19.9263 0.0203623
74.6792 32.6053 2
73.7222 27.7943 2
67.2508 14.6715 2
72.1455 23.1494 2
70.613 26.2216 2
66.6367 17.977 2
68.8848 21.9603 2
65.7925 21.0285 2
74.9197 35.0474 4
74.2794 30.1841 4
72.1842 32.9436 3.97946
71.2773 28.4316 3.97889
69.8144 24.0596 3.97983
68.3435 26.9526 3.9682
66.7588 22.9348 3.96849
65.694 12.7746 4
65.3219 16.1047 3.97802
64.7096 19.1985 3.96917
63.8668 22.0442 3.96571
71.1327 54.0858 0
65.6939 62.2254 0
68.6801 58.3339 0
65.3108 59.0006 0.0213717
72.1455 51.8506 2
69.9759 56.25 2
68.8353 53.1109 2
64.0165 64.0165 2
66.6104 57.1292 2
63.8858 60.7608 2
63.4958 57.7669 2
62.2254 65.694 4
58.8935 65.4137 3.98863
69.7678 50.9889 3.97899
67.7825 55.1671 3.97934
66.6457 52.2078 3.96788
62.3343 62.4264 3.98194
64.6569 56.0288 3.96922
62.1985 59.3967 3.96884
61.8147 56.6725 3.96554
58.3339 68.6801 4
60.3285 67.2508 2
73.7221 47.2057 0
74.6784 42.3946 0
74.9197 39.9526 2
74.2794 44.8159 2
72.1669 42.0855 2
73.0099 49.554 2
71.2481 46.5977 2
75 37.5 4
72.4048 39.8023 3.97989
71.7817 44.3528 3.97915
69.8014 41.7898 3.96868
70.574 48.8135 3.97863
68.9089 46.0142 3.96811
74.6792 32.6053 0
73.7222 27.7943 0
67.2507 14.6715 0
72.1454 23.1494 0
70.6131 26.221 0.0207566
68.8845 21.958 0.0199316
66.6357 17.9725 0.0212346
65.7932 21.0275 0.0311619
74.9197 35.0474 2
74.2794 30.1841 2
72.1836 32.9439 2
71.2771 28.432 2
65.694 12.7745 2
65.3235 16.1096 2
69.8145 24.0608 2
68.3433 26.9533 2
64.7087 19.1993 2
66.7583 22.9357 2
63.8667 22.0447 2
72.4126 35.2244 3.97994
71.8032 30.6765 3.97943
69.8374 33.2692 3.96883
68.963 29.0392 3.96829
67.6078 24.9133 3.96827
66.1642 27.6422 3.96698
64.0165 10.9835 4
64.7309 23.8386 3.96618
63.8881 14.3292 3.97908
63.5085 17.4533 3.96962
62.8909 20.3304 3.96496
62.0259 22.9673 3.96706
60.6824 11.0997 3.98328
57.6105 11.4545 3.97483
72.1454 51.8506 0
69.9759 56.25 0
68.8352 53.113 0.0207471
64.0165 64.0165 0
63.8839 60.7648 0.0210382
66.6094 57.1333 0.0208293
63.4965 57.7672 0.030485
62.2255 65.694 2
58.8951 65.4126 2
69.7677 50.9878 2
67.783 55.1638 2
66.6451 52.2069 2
62.3365 62.423 2
64.656 56.0282 2
62.1977 59.3973 2
61.8141 56.6723 2
60.6671 63.9758 3.98483
57.0247 66.7346 3.99009
57.556 63.687 3.97757
67.5038 50.1755 3.96765
65.6981 54.1714 3.96837
64.5073 51.3761 3.96555
60.7695 60.929 3.97174
62.8093 55.0605 3.96496
60.6486 58.146 3.96473
60.3102 55.7692 3.96431
56.25 69.9759 4
58.3339 68.6801 2
60.3285 67.2507 0
58.9202 9.65724 3.98626
62.2254 9.30607 4
73.0099 49.554 0
74.2788 44.8158 0
71.2483 46.598 0.0213973
72.1675 42.0856 0.0208097
74.9194 39.9526 0
75 37.5 2
72.4047 39.8024 2
71.7816 44.3525 2
69.8008 41.7894 2
70.5739 48.8131 2
68.9088 46.0136 2
72.4882 37.5122 3.97953
70.0388 39.6577 3.96885
69.4274 43.9073 3.96851
67.5685 41.4947 3.96877
68.2623 48.1062 3.96776
66.6714 45.433 3.96774
74.9197 35.0474 0
74.2794 30.1841 0
72.1842 32.9436 0.0205356
71.2773 28.4316 0.0211083
65.694 12.7746 0
65.3219 16.1047 0.0219815
69.8144 24.0596 0.0201663
68.3435 26.9526 0.0318026
66.7588 22.9348 0.0315119
64.7096 19.1985 0.0308306
63.8668 22.0442 0.0342898
72.4126 35.2245 2
71.8031 30.6771 2
69.8368 33.2696 2
68.9629 29.0398 2
64.0165 10.9835 2
63.8903 14.3336 2
63.5076 17.4541 2
67.6075 24.9141 2
66.1644 27.6426 2
62.8911 20.3307 2
64.7306 23.8391 2
62.0253 22.9678 2
60.6852 11.103 2
57.6123 11.4538 2
70.0556 35.3926 3.96896
69.4643 31.1504 3.96853
67.6301 33.5946 3.9684
66.7413 29.6295 3.96735
65.4941 25.7075 3.96652
64.0489 28.2762 3.97069
62.3399 12.657 3.98137
62.7786 24.6607 3.96845
62.1943 15.7954 3.96996
61.8028 18.6968 3.96496
61.1598 21.367 3.96524
60.3052 23.767 3.96967
59.2434 12.7916 3.97301
55.8727 10.2401 3.9775
56.4013 13.1384 3.97217
69.7678 50.9889 0.0210111
62.2254 65.694 0
58.8935 65.4137 0.0113673
67.7825 55.1671 0.02066
66.6457 52.2078 0.0321162
62.3343 62.4264 0.0180576
62.1985 59.3967 0.0311601
64.6569 56.0288 0.0307769
61.8147 56.6725 0.0344573
60.6692 63.9739 2
57.0258 66.7339 2
57.5564 63.688 2
67.5034 50.1747 2
65.6973 54.1706 2
64.5072 51.3757 2
60.7688 60.9302 2
62.8092 55.0604 2
60.6483 58.1462 2
60.3106 55.7691 2
55.0706 67.9315 3.99138
59.2161 62.3571 3.97281
55.8033 64.9061 3.98149
56.3226 62.0732 3.97409
65.2939 49.3988 3.96614
63.6855 53.2841 3.96515
62.3523 50.6274 3.96736
59.3253 59.5417 3.96623
61.0392 54.2903 3.9658
59.2687 56.9916 3.96318
59.207 55.1596 3.96589
48.1011 68.5769 3.98677
50.9484 69.9312 3.99153
54.0858 71.1327 4
56.25 69.976 2
58.3339 68.6801 0
57.0576 8.33689 3.98728
60.3285 7.74928 4
58.9229 9.65929 2
62.2255 9.30602 2
70.574 48.8135 0.0213672
71.7817 44.3528 0.0208519
68.9089 46.0142 0.0318948
69.8014 41.7898 0.0313162
72.4048 39.8023 0.0201103
75 37.5 0
72.4877 37.5123 2
70.0387 39.6576 2
69.4273 43.9069 2
67.5683 41.4944 2
68.2622 48.1055 2
66.6708 45.4326 2
70.1269 37.522 3.96894
67.8097 39.5113 3.96894
67.1882 43.465 3.96814
65.4519 41.2006 3.9738
66.0284 47.4094 3.96706
64.5366 44.8298 3.9714
72.4126 35.2244 0.0200597
71.8032 30.6765 0.0205705
69.8374 33.2692 0.0311657
68.963 29.0392 0.0317145
64.0165 10.9835 0
63.8881 14.3292 0.0209228
63.5085 17.4533 0.0303839
67.6078 24.9133 0.0317284
66.1642 27.6422 0.0330169
64.7309 23.8386 0.0338199
62.8909 20.3304 0.0350421
62.0259 22.9673 0.0329402
60.6824 11.0997 0.0167227
57.6105 11.4545 0.0251731
70.0555 35.3928 2
69.4642 31.1509 2
67.63 33.5948 2
66.7413 29.6298 2
62.3424 12.6613 2
62.1935 15.7953 2
61.8021 18.6971 2
65.494 25.708 2
64.0474 28.2767 2
61.1589 21.3675 2
62.7779 24.6612 2
60.3049 23.7679 2
59.245 12.7903 2
56.4024 13.1359 2
55.8741 10.2396 2
67.8493 35.5497 3.96886
67.2371 31.6277 3.96795
65.6043 33.9362 3.97345
64.5643 30.2096 3.97168
63.4502 26.4366 3.96957
62.0942 28.8102 3.97504
60.7718 14.2348 3.97191
60.9105 25.3759 3.97193
60.6011 17.145 3.9658
60.1759 19.8432 3.96295
59.5477 22.3004 3.96635
58.8149 24.3726 3.9725
54.0363 9.14116 3.97987
57.9044 14.3541 3.97145
54.7833 12.0273 3.97386
55.3046 14.68 3.96998
67.5038 50.1755 0.0323476
57.0247 66.7346 0.00990948
60.6671 63.9758 0.0151714
57.556 63.687 0.0224348
65.6981 54.1714 0.0316293
64.5073 51.3761 0.0344519
60.7695 60.929 0.0282583
60.6486 58.146 0.0352717
62.8093 55.0605 0.0350386
60.3102 55.7692 0.0356922
55.0715 67.9313 2
59.2165 62.359 2
55.8035 64.9068 2
56.3219 62.0756 2
65.2938 49.3984 2
63.6856 53.2838 2
62.352 50.627 2
59.3245 59.5428 2
61.04 54.2902 2
59.2698 56.9915 2
59.2088 55.1594 2
53.0426 68.9993 3.99141
53.9657 66.0109 3.98392
57.8747 60.8534 3.97213
54.6814 63.1999 3.97679
55.2036 60.5917 3.97226
63.0905 48.6368 3.96876
61.6744 52.5525 3.9666
60.1208 49.9794 3.96939
58.0017 58.2417 3.96587
59.2573 53.9175 3.96724
58.066 55.7814 3.96106
50.1078 67.8554 3.98637
47.462 66.5766 3.98288
46.0549 69.1559 3.98704
48.1011 68.5776 2
48.8024 70.7224 3.99164
50.949 69.9311 2
51.8506 72.1454 4
54.0858 71.1327 2
56.25 69.9759 0
55.1023 7.14129 3.98949
58.3339 6.31992 4
57.0597 8.33825 2
60.3286 7.74926 2
58.9202 9.65724 0.0137385
62.2254 9.30607 0
68.2623 48.1062 0.0322392
69.4274 43.9073 0.0314866
66.6714 45.433 0.03226
67.5685 41.4947 0.031227
70.0388 39.6577 0.0311476
72.4882 37.5122 0.0204729
70.1264 37.5221 2
67.8091 39.5112 2
67.1889 43.4647 2
65.4502 41.2003 2
66.0286 47.4091 2
64.5349 44.8293 2
67.9093 37.5226 3.96894
65.6898 39.3657 3.9744
65.0682 43.0114 3.97285
63.581 40.9133 3.97726
63.85 46.6944 3.96993
62.6224 44.1877 3.97558
70.0556 35.3926 0.0310427
69.4643 31.1504 0.0314672
67.6301 33.5946 0.031597
66.7413 29.6295 0.032654
62.3399 12.657 0.018627
62.1943 15.7954 0.0300438
61.8028 18.6968 0.0350397
65.4941 25.7075 0.0334764
64.0489 28.2762 0.0293092
62.7786 24.6607 0.031551
61.1598 21.367 0.0347565
60.3052 23.767 0.0303305
59.2434 12.7916 0.0269912
56.4013 13.1384 0.0278347
55.8727 10.2401 0.0224985
67.8486 35.5498 2
67.2376 31.6279 2
65.6022 33.9365 2
64.5625 30.2101 2
60.7716 14.2358 2
60.6005 17.145 2
60.1772 19.8432 2
63.4491 26.4371 2
62.0918 28.8111 2
59.5491 22.3011 2
60.91 25.3767 2
58.814 24.3739 2
57.9049 14.3523 2
55.3054 14.6789 2
54.0376 9.1396 2
54.7845 12.0242 2
65.7825 35.6716 3.97409
65.0827 32.1681 3.97225
64.1362 34.2628 3.97741
62.415 30.6644 3.9761
61.4996 27.1084 3.97312
60.6423 29.1827 3.9771
59.3022 15.6885 3.96735
59.1402 25.849 3.97541
59.0995 18.3815 3.96271
58.6488 20.8964 3.9632
58.1257 23.1483 3.9673
57.7822 24.7265 3.9741
52.1114 8.15692 3.98286
53.0556 11.0285 3.97509
56.665 15.7726 3.96997
53.8034 13.7099 3.97295
54.3608 16.0364 3.97053
55.0706 67.9315 0.00862249
65.2939 49.3988 0.0338626
55.8033 64.9061 0.0185063
59.2161 62.3571 0.0271918
56.3226 62.0732 0.0259101
63.6855 53.2841 0.0348524
62.3523 50.6274 0.0326352
59.3253 59.5417 0.0337685
59.2687 56.9916 0.0368199
61.0392 54.2903 0.0342014
59.207 55.1596 0.034106
53.0433 68.9993 2
53.966 66.0116 2
57.8738 60.8552 2
54.6809 63.2006 2
55.2032 60.5936 2
63.0895 48.6363 2
61.675 52.5524 2
60.1208 49.9788 2
58.0009 58.2427 2
59.2598 53.9173 2
58.0639 55.7802 2
52.0691 66.9981 3.98594
52.9521 64.2126 3.9805
56.6366 59.4676 3.97025
[...]
POINT_DATA 3012
SCALARS Jp_lamdaP float 4
LOOKUP_TABLE default
0.999819 1 1 0.999819
1 1 1 1
0.999825 1 1 0.999825
0.999773 1 1 0.999773
0.999819 1 1 0.999819
0.999811 1 1 0.999811
0.999221 1 1 0.999221
1 1 1 1
1 1 1 1
1 1 1 1
0.999892 1 1 0.999892
0.999371 1 1 0.999371
0.999741 1 1 0.999741
0.999766 1 1 0.999766
0.999825 1 1 0.999825
0.999791 1 1 0.999791
0.999816 1 1 0.999816
0.999829 1 1 0.999829
0.999224 1 1 0.999224
1 1 1 1
0.999752 1 1 0.999752
0.9998 1 1 0.9998
0.999091 1 1 0.999091
0.999192 1 1 0.999192
0.999828 1 1 0.999828
0.99925 1 1 0.99925
1.00071 1.00244 1 0.998283
1 1 1 1
0.999898 1 1 0.999898
0.999912 1 1 0.999912
1 1 1 1
0.999379 1 1 0.999379
0.999791 1 1 0.999791
0.999815 1 1 0.999815
0.99932 1 1 0.99932
1 1 1 1
0.999408 1 1 0.999408
0.99947 1 1 0.99947
0.99851 1.0002 1 0.998308
1 1 1 1
1 1 1 1
0.999881 1 1 0.999881
1 1 1 1
0.99976 1 1 0.99976
0.999018 1 1 0.999018
1 1 1 1
0.999223 1 1 0.999223
0.999806 1 1 0.999806
0.999836 1 1 0.999836
0.999817 1 1 0.999817
0.999229 1 1 0.999229
0.999865 1 1 0.999865
0.999769 1 1 0.999769
0.999839 1 1 0.999839
0.999815 1 1 0.999815
0.99909 1 1 0.99909
0.999254 1 1 0.999254
0.999194 1 1 0.999194
1.00105 1.00278 1 0.998268
1 1 1 1
0.999743 1 1 0.999743
0.999208 1 1 0.999208
0.999054 1 1 0.999054
0.999143 1 1 0.999143
1.00333 1.00535 1 0.997987
1.00179 1.00368 1 0.998117
0.999887 1 1 0.999887
0.999363 1 1 0.999363
0.99942 1.00104 1 0.998385
1.01039 1.01293 1 0.997492
1 1 1 1
1 1 1 1
1 1 1 1
0.999387 1 1 0.999387
1 1 1 1
1 1 1 1
0.99922 1 1 0.99922
0.99997 1 1 0.99997
0.999327 1 1 0.999327
0.999538 1 1 0.999538
0.998389 1.00008 1 0.998305
1 1 1 1
0.999922 1 1 0.999922
0.999156 1 1 0.999156
0.999256 1 1 0.999256
1.00329 1.00542 1 0.997883
0.999708 1 1 0.999708
0.999525 1.00132 1 0.998207
0.998446 1 1 0.998446
0.999364 1.00166 1 0.99771
1 1 1 1
1 1 1 1
1 1 1 1
1 1 1 1
1 1 1 1
0.999877 1 1 0.999877
0.999108 1 1 0.999108
0.999886 1 1 0.999886
0.999168 1 1 0.999168
1 1 1 1
0.99901 1 1 0.99901
0.999199 1 1 0.999199
1.00283 1.00524 1 0.997607
0.999259 1 1 0.999259
1.00469 1.00703 1 0.997684
0.99976 1 1 0.99976
0.999785 1 1 0.999785
0.999848 1 1 0.999848
0.999828 1 1 0.999828
0.999091 1 1 0.999091
0.999199 1 1 0.999199
0.99926 1 1 0.99926
1.00138 1.00313 1 0.998253
1 1 1 1
0.999759 1 1 0.999759
0.999036 1 1 0.999036
0.999052 1 1 0.999052
0.999943 1 1 0.999943
0.999422 1 1 0.999422
0.999145 1 1 0.999145
1.00331 1.00537 1 0.997946
0.999807 1.00144 1 0.998366
1.00202 1.00388 1 0.998147
1.01039 1.01292 1 0.997497
0.999033 1 1 0.999033
0.999035 1 1 0.999035
1.00247 1.00469 1 0.997789
1.00335 1.00549 1 0.997871
1.00312 1.00513 1 0.998001
1.01784 1.02058 1 0.997312
1 1 1 1
1.01278 1.01539 1 0.997429
0.999592 1 1 0.999592
0.99856 1.00015 1 0.998406
1.00787 1.01034 1 0.997554
1.02088 1.02368 1 0.997264
0.999805 1 1 0.999805
1.00062 1 1.00161 0.999017
1 1 1 1
1 1 1 1
0.999227 1 1 0.999227
1 1 1 1
0.999528 1 1 0.999528
0.999332 1 1 0.999332
0.998302 1 1 0.998302
1 1 1 1
0.999939 1 1 0.999939
0.999225 1 1 0.999225
0.999321 1 1 0.999321
1.00276 1.00489 1 0.997885
0.999711 1 1 0.999711
0.999112 1.0009 1 0.99821
0.998444 1 1 0.998444
0.999182 1.00149 1 0.997693
0.999828 1 1 0.999828
0.999977 1 1 0.999977
0.999881 1 1.00065 0.99923
1.00451 1.00675 1 0.997773
1.00144 1.0034 1 0.998046
1.014 1.01676 1 0.99729
0.998681 1 1 0.998681
1.00423 1.00664 1 0.997608
0.999368 1.001 1.00057 0.9978
1.00475 1.00725 1 0.997522
1 1 1 1
1 1 1 1
1 1 1 1
0.99988 1 1 0.99988
1 1 1 1
1 1 1 1
1 1 1 1
0.99911 1 1 0.99911
0.999046 1 1 0.999046
1 1 1 1
1 1 1 1
0.999012 1 1 0.999012
0.999143 1 1 0.999143
1.00316 1.00557 1 0.997607
0.999137 1 1 0.999137
1.00478 1.00711 1 0.997684
0.999004 1 1 0.999004
1.00203 1.00448 1 0.997561
1.00387 1.00622 1 0.997656
1.02106 1.02399 1 0.997133
1.00488 1.00719 1 0.997714
1.02188 1.02477 1 0.997189
1 1 1 1
0.999776 1 1 0.999776
0.998849 1 1 0.998849
0.999051 1 1 0.999051
1 1 1 1
0.999483 1 1 0.999483
0.999148 1 1 0.999148
1.00327 1.00538 1 0.997904
1.00226 1.00409 1 0.998176
1.00015 1.0018 1 0.998348
1.01035 1.01288 1 0.997502
0.99903 1 1 0.99903
0.999032 1 1 0.999032
1.00233 1.00465 1 0.997688
1.00337 1.00548 1 0.9979
1 1 1 1
0.999597 1 1 0.999597
0.998836 1.00037 1 0.998464
1.00306 1.00507 1 0.997999
1.0177 1.02048 1 0.997277
1.00751 1.00999 1 0.997543
1.01299 1.01557 1 0.997462
1.02045 1.02324 1 0.997271
0.999911 1 1.00012 0.999795
1.00061 1 1.00159 0.999019
1.00162 1.00404 1 0.997583
1.00298 1.00516 1 0.997835
1.01916 1.02199 1 0.997227
1.01813 1.02097 1 0.997209
1.01527 1.01791 1 0.997404
1.02903 1.0319 1 0.997226
0.999761 1 1.00005 0.999709
1.02268 1.02548 1 0.997271
0.998682 1 1.00011 0.998576
1.00229 1.00463 1 0.997674
1.01858 1.02135 1 0.997288
1.02317 1.02593 1 0.997313
1.00042 1 1.00158 0.99885
0.999535 1 1.00031 0.999229
1.00136 1 1.00293 0.998438
0.999178 1 1 0.999178
1 1 1 1
0.999957 1 1 0.999957
0.999285 1 1 0.999285
1.00223 1.00435 1 0.997887
0.999718 1 1 0.999718
0.998484 1 1.00004 0.998443
0.998668 1.00046 1 0.998213
0.99897 1.0013 1 0.997676
0.999849 1 1 0.999849
0.999984 1 1 0.999984
1.00004 1 1.00081 0.999232
1.0042 1.00644 1 0.997772
1.00081 1.00276 1 0.998051
1.01401 1.01677 1 0.997287
0.998735 1 1.00005 0.998684
1.00412 1.00652 1 0.997617
0.999118 1.00085 1.00047 0.997796
1.00511 1.00762 1 0.997507
0.999996 1 1 0.999996
0.999313 1 1.00037 0.998942
0.999984 1 1.00048 0.999508
1.00031 1 1.00167 0.998646
1.01779 1.02063 1 0.997213
1.00952 1.0121 1 0.997452
1.02302 1.02597 1 0.99712
0.998849 1.00029 1.00049 0.998076
1.01135 1.01395 1 0.997433
1.00622 1.00718 1.00158 0.997473
1.0149 1.01757 1 0.997376
0.999824 1 1 0.999824
1 1 1 1
1 1 1 1
1 1 1 1
1 1 1 1
0.999937 1 1 0.999937
1 1 1 1
0.999882 1 1.00001 0.999868
1 1 1 1
0.999138 1 1 0.999138
0.999082 1 1 0.999082
1.00494 1.00728 1 0.997683
1.00347 1.00587 1 0.997608
0.999014 1 1 0.999014
1 1 1 1
0.999004 1 1 0.999004
1.00222 1.00467 1 0.997561
1.00416 1.00652 1 0.997655
1.02074 1.02367 1 0.997131
1.00487 1.00717 1 0.997712
1.02185 1.02473 1 0.997187
1.00154 1.004 1 0.997555
1.01992 1.0229 1 0.997091
1.0219 1.02481 1 0.997169
1.03484 1.03773 1 0.997212
1.02096 1.02383 1 0.997195
1.03296 1.03586 1 0.997204
0.999027 1 1 0.999027
0.99903 1 1 0.99903
1.00219 1.00461 1 0.997588
1.0034 1.00548 1 0.997928
1 1 1 1
0.999603 1 1 0.999603
0.999123 1.0006 1 0.998521
1.003 1.00502 1 0.997998
1.01758 1.0204 1 0.997242
1.01317 1.01572 1 0.997494
1.00718 1.00967 1 0.997532
1.02013 1.02291 1 0.997278
0.999849 1 1.00006 0.999785
1.00053 1 1.00151 0.999021
1.00158 1.00403 1 0.997558
1.00294 1.00512 1 0.997832
1.01931 1.02215 1 0.997229
1.01826 1.02108 1 0.997242
0.999716 1 1.00002 0.999698
0.998619 1 1.00005 0.998573
1.00301 1.00532 1 0.997709
1.01553 1.01818 1 0.997398
1.02922 1.03206 1 0.997244
1.01793 1.02073 1 0.997256
1.02259 1.02538 1 0.997275
1.02357 1.02633 1 0.997313
0.9999 1 1.00105 0.998853
1.00132 1 1.00288 0.99844
0.99994 1 1.00071 0.999226
1.01894 1.02183 1 0.997177
1.01944 1.02224 1 0.997254
1.03348 1.03639 1 0.997191
1.03049 1.03339 1 0.997198
1.02492 1.02772 1 0.997276
1.02955 1.03221 1 0.997429
0.998929 1 1.0002 0.998732
1.02516 1.02786 1 0.997372
0.99885 1.00086 1 0.997992
1.00968 1.01246 1 0.997262
1.02057 1.02349 1 0.997145
1.02113 1.0237 1 0.997489
0.999417 1 1 0.999417
0.998709 1 1.00032 0.998394
1.00243 1 1.0039 0.998542
0.999881 1 1.00163 0.998254
1.00391 1.00615 1 0.997772
0.999991 1 1 0.999991
0.999869 1 1 0.999869
0.999833 1 1.0006 0.999235
1.00016 1.00211 1 0.998055
1.014 1.01676 1 0.997284
0.998838 1 1.00015 0.998688
0.99877 1.00065 1.00033 0.997791
1.00406 1.00644 1 0.997627
1.00524 1.00777 1 0.997493
0.999998 1 1 0.999998
0.999432 1 1.00049 0.998942
0.999725 1 1.00021 0.999516
1.00063 1 1.00199 0.99864
1.01766 1.0205 1 0.997209
1.00915 1.01173 1 0.997452
1.02291 1.02586 1 0.997118
0.998651 1.00012 1.00045 0.998082
1.01155 1.01414 1 0.997446
1.00586 1.00668 1.00173 0.997462
1.0151 1.0177 1 0.997445
1 1 1 1
0.999682 1 1 0.999682
0.998989 1 1.0006 0.998392
1.00029 1 1.00138 0.99891
0.999974 1 1.00162 0.998358
1.02655 1.02953 1 0.997111
1.01739 1.02019 1 0.997256
1.02141 1.02432 1 0.997161
1.0028 1.00311 1.00199 0.997703
1.01391 1.01657 1 0.997375
1.00973 1.0117 1.00086 0.997189
0.999803 1 1 0.999803
0.999396 1 1 0.999396
0.999838 1 1 0.999838
0.999826 1 1 0.999826
1 1 1 1
1 1 1 1
1 1 1 1
1 1 1 1
1 1 1 1
0.999976 1 1 0.999976
1 1 1 1
0.999924 1 1 0.999924
1 1 1 1
1.00003 1 1.00017 0.999856
1 1 1 1
1.00482 1.00712 1 0.997711
1.0044 1.00676 1 0.997655
1.02162 1.0245 1 0.997186
1.0204 1.02334 1 0.99713
1.00248 1.00493 1 0.997561
0.999003 1 1 0.999003
1.00168 1.00414 1 0.997554
1.01981 1.02278 1 0.997091
1.02148 1.02439 1 0.997168
1.03477 1.03778 0.999872 0.997228
1.02049 1.02336 1 0.997192
1.0326 1.0355 1 0.997202
1.01936 1.02234 1 0.997082
1.03408 1.03725 0.99972 0.997217
1.03454 1.03743 1 0.997216
1.03601 1.03954 0.999196 0.997411
1.02931 1.03224 1 0.997163
1.03345 1.03612 0.999948 0.99747
1.00157 1.00405 1 0.997532
1.00291 1.0051 1 0.997828
1.01949 1.02233 1 0.997231
1.01839 1.02117 1 0.997275
0.999693 1 1 0.999688
0.998591 1.00002 1 0.998571
1.00374 1.00601 1 0.997745
1.01581 1.01846 1 0.997393
1.02944 1.03227 1 0.997262
1.02249 1.02528 1 0.997279
1.01718 1.02001 1 0.997224
1.02395 1.02671 1 0.997312
0.999525 1 1.00067 0.998855
1.00133 1 1.00289 0.998442
1.00022 1 1.001 0.999224
1.01906 1.02198 1 0.997142
1.01959 1.0224 1 0.997252
1.03307 1.03596 1 0.997213
1.03067 1.03356 1 0.997197
0.998939 1 1.00021 0.99873
0.999883 1.0019 1 0.997986
1.00871 1.01139 1.00003 0.997313
1.0251 1.0279 1 0.997268
1.02939 1.032 1 0.99747
1.02074 1.02369 1 0.997111
1.02509 1.02779 1 0.997375
1.02102 1.02356 1 0.997517
0.998917 1 1.00052 0.998395
0.999895 1 1.00166 0.998234
0.999439 1 1.00003 0.999412
1.00218 1 1.00361 0.99857
1.03358 1.03651 1 0.997173
1.03286 1.03574 1 0.997219
1.03338 1.03695 0.999231 0.997329
1.03128 1.03447 0.999444 0.99747
1.02678 1.02941 1 0.997445
1.02827 1.03077 0.999935 0.997636
0.998256 1 1 0.998256
1.02172 1.02412 1 0.997656
1.00125 1.00367 1 0.997594
1.01252 1.01536 1.00018 0.997027
1.02185 1.02483 1 0.997089
1.0206 1.0231 1 0.997556
0.999551 1 1 0.999551
1.00005 1 1.00131 0.998748
0.998195 1 1 0.998195
1.00197 1 1.00366 0.998313
0.99909 1 1.00088 0.998209
0.999999 1 1 0.999999
1.01746 1.02031 1 0.997205
0.999523 1 1 0.999523
0.999766 1 1.00082 0.998943
1.00106 1 1.00243 0.998635
1.00881 1.01139 1 0.997452
1.02286 1.02582 1 0.997116
0.998593 1 1.00051 0.998087
1.00593 1.00656 1.00193 0.997451
1.01183 1.01441 1 0.997458
1.0155 1.01803 1 0.997513
1 1 1 1
0.999689 1 1 0.999689
0.998985 1 1.00059 0.998394
1.00048 1 1.00157 0.99891
1.00033 1 1.002 0.998337
1.02674 1.02972 1 0.997106
1.0177 1.0205 1 0.997255
1.0213 1.02422 1 0.997151
1.00198 1.00215 1.00213 0.997708
1.01654 1.01921 1 0.997382
1.00914 1.01099 1.00096 0.997208
0.999764 1 1 0.999764
0.999326 1 1.00017 0.999153
0.998864 1.00031 1.00048 0.998078
1.00159 1 1.00303 0.998563
0.999713 1 1.00148 0.998237
1.0256 1.02846 1 0.99722
1.01703 1.01985 1 0.997242
1.01941 1.02213 1 0.997338
1.00197 1.0007 1.00379 0.99749
1.00807 1.01102 1 0.997084
0.999806 1 1 0.999806
0.999329 1 1 0.999329
0.999374 1 1 0.999374
0.999152 1 1 0.999152
0.999406 1 1 0.999406
0.999844 1 1 0.999844
0.99984 1 1 0.99984
1 1 1 1
0.999828 1 1 0.999828
1 1 1 1
1 1 1 1
1 1 1 1
1 1 1 1
1 1 1 1
0.999996 1 1 0.999996
0.999965 1 1 0.999965
1 1 1 1
1 1 1 1
0.999911 1 1 0.999911
1 1 1 1
1.0201 1.02298 1 0.997189
1.02127 1.02417 1 0.997167
1.03236 1.03526 1 0.9972
1.03476 1.03792 0.999714 0.997244
1.01959 1.02256 1 0.997092
1.00176 1.00421 1 0.997554
1.01915 1.02214 1 0.997082
1.0341 1.03725 0.999751 0.997211
1.03448 1.03736 1 0.997216
1.03548 1.03928 0.998896 0.997442
1.02988 1.03282 1 0.997157
1.03315 1.03605 0.999713 0.99749
1.03341 1.03653 0.999804 0.997184
1.03452 1.03891 0.998388 0.997379
1.03484 1.03816 0.999305 0.997499
1.03341 1.03891 0.997129 0.99757
1.03008 1.0328 1 0.997367
1.03269 1.03605 0.99908 0.997683
1.01909 1.02205 1 0.997107
1.01972 1.02253 1 0.99725
1.03259 1.03545 1 0.997236
1.03079 1.03369 1 0.997195
0.998894 1 1.00017 0.998729
1.00088 1.0029 1 0.997979
1.00782 1.0103 1.00018 0.997363
1.02528 1.02809 1 0.99726
1.02914 1.0317 1 0.997511
1.02505 1.02775 1 0.997378
1.02093 1.02393 1 0.997078
1.02069 1.0232 1 0.997545
0.99909 1 1.00069 0.998397
0.999908 1 1.0017 0.998215
0.99954 1 1.00013 0.999407
1.00171 1 1.00311 0.998599
1.03345 1.03638 1 0.997173
1.03237 1.03526 1 0.9972
1.03324 1.03673 0.999277 0.997358
1.03154 1.03447 0.999713 0.997452
0.998353 1.0001 1 0.998249
1.00134 1.00368 1.00003 0.997641
1.01278 1.01541 1.00039 0.997018
1.02637 1.02904 1 0.997409
1.02776 1.03026 0.999881 0.997691
1.02064 1.02363 1 0.997075
1.0223 1.0247 1 0.997658
1.02162 1.02407 1 0.997604
0.998192 1 1 0.998192
0.998698 1 1.00048 0.998215
1.00267 1 1.00437 0.998306
0.999516 1 1 0.999516
1.00005 1 1.00127 0.998775
1.03349 1.03817 0.998122 0.997366
1.03335 1.03712 0.998951 0.99741
1.02908 1.03356 0.997986 0.997677
1.02456 1.02734 0.999584 0.997707
0.998554 1.00055 1 0.998001
1.02562 1.02786 1 0.997826
1.0012 1.00357 1.00029 0.997349
1.01154 1.01427 1.00051 0.996798
1.01912 1.02213 1 0.997063
0.999611 1 1 0.999611
0.999234 1 1.00023 0.999009
1.00093 1 1.00242 0.998517
0.998147 1 1 0.998147
1.00251 1 1.0044 0.998117
0.998138 1 1 0.998138
1 1 1 1
0.999696 1 1 0.999696
1.02694 1.02993 1 0.9971
1.00072 1 1.00181 0.99891
0.998823 1 1.00043 0.998396
1.00086 1 1.00255 0.998316
1.01787 1.02067 1 0.997253
1.02103 1.02396 1 0.997141
1.00104 1.00105 1.00229 0.997714
1.00799 1.01001 1.00077 0.997227
1.01902 1.02169 1 0.997389
0.999769 1 1 0.999769
0.999269 1 1.00011 0.999156
0.998651 1.00016 1.00041 0.99808
1.00218 1 1.00363 0.998559
0.999769 1 1.00154 0.998233
1.02557 1.02844 1 0.997214
1.01742 1.02024 1 0.997232
1.01917 1.02186 1 0.997364
1.00181 1.00111 1.00324 0.997455
1.00688 1.0098 1.00006 0.997055
0.9993 1 1 0.9993
1.00082 1 1.00207 0.998752
1.00058 1.00066 1.002 0.997935
1.0019 1 1.0036 0.998301
0.999123 1 1.001 0.99813
1.02585 1.02827 1 0.997647
1.01507 1.01797 1 0.997151
1.01587 1.01853 1 0.997388
1.00375 1.00214 1.00433 0.997289
1.0013 1.00445 1 0.996865
0.999809 1 1 0.999809
0.999346 1 1 0.999346
0.999067 1 1 0.999067
0.999352 1 1 0.999352
0.999405 1 1 0.999405
0.99912 1 1 0.99912
0.998979 1 1 0.998979
0.999085 1 1 0.999085
0.99941 1 1 0.99941
0.99984 1 1 0.99984
0.999844 1 1 0.999844
1 1 1 1
0.999841 1 1 0.999841
1 1 1 1
1 1 1 1
1 1 1 1
1 1 1 1
1 1 1 1
1 1 1 1
0.999991 1 1 0.999991
1 1 1 1
0.999955 1 1 0.999955
1 1 1 1
1 1 1 1
1.03041 1.03335 1 0.997151
1.03421 1.03709 1 0.997215
1.03285 1.03598 0.999466 0.997511
1.03491 1.03897 0.998619 0.997473
1.03417 1.03728 0.999795 0.997204
1.01906 1.02204 1 0.997083
1.0338 1.03685 0.999893 0.997165
1.03475 1.03894 0.998592 0.997371
1.03492 1.03804 0.999515 0.99748
1.03274 1.03854 0.996826 0.997584
1.02942 1.03214 1 0.997366
1.03167 1.03526 0.998813 0.997725
1.03422 1.03831 0.998715 0.99735
1.03369 1.0401 0.996261 0.997562
1.0332 1.03907 0.996662 0.997683
1.02983 1.03321 0.998961 0.99777
1.03341 1.03634 1 0.997173
1.0319 1.03482 1 0.997181
1.03314 1.03654 0.999327 0.997386
1.03188 1.03458 0.999961 0.997435
0.998498 1.00025 1 0.998242
1.00121 1.00353 1 0.997687
1.01302 1.01546 1.00058 0.997009
1.02589 1.02859 1 0.997373
1.02727 1.02978 0.999817 0.997746
1.02306 1.02546 1 0.997661
1.01964 1.02264 1 0.997062
1.02286 1.02527 1 0.997651
0.99828 1.00009 1 0.99819
0.998248 1 1.00003 0.99822
1.00409 1 1.0058 0.998299
0.999481 1 1 0.999481
1.00009 1 1.00128 0.998803
1.03401 1.03838 0.998421 0.997368
1.03341 1.03725 0.99889 0.997409
1.029 1.03306 0.998401 0.997666
0.999163 1.00117 1 0.997995
1.00223 1.00459 1.00026 0.997394
1.0112 1.01369 1.00076 0.996787
1.0252 1.02799 0.999591 0.997696
1.01933 1.02225 1 0.997145
1.02363 1.02599 0.999903 0.997801
0.999628 1 1 0.999628
0.998489 1.00035 1 0.998138
0.998231 1 1 0.998231
1.00265 1 1.00456 0.998102
1.001 1 1.00247 0.99853
0.999191 1 1.00021 0.99898
1.0326 1.03929 0.996099 0.997452
1.03133 1.03917 0.99485 0.997592
1.02413 1.03116 0.995409 0.997764
1.02814 1.03244 0.997928 0.997907
0.999565 1.00173 1 0.997837
1.01948 1.02207 1 0.997472
1.00281 1.00426 1.00165 0.99692
1.00647 1.00881 1.00104 0.996646
0.99975 1 1 0.99975
0.999189 1 1 0.999189
0.999292 1 1.00059 0.998703
1.00284 1 1.00464 0.998207
0.998331 1.0003 1 0.998027
1.00197 1 1.00401 0.99797
0.999774 1 1 0.999774
0.99916 1 1 0.99916
1.02572 1.02859 1 0.997207
1.00237 1 1.00383 0.998555
0.998352 1 1.00027 0.998083
0.999708 1 1.00148 0.99823
1.01809 1.02092 1 0.997222
1.01916 1.02183 1 0.99739
1.00187 1.00172 1.00273 0.997419
1.00576 1.00849 1.00027 0.997026
0.999302 1 1 0.999302
1.0006 1 1.00185 0.998757
1.00028 1.00035 1.00198 0.997949
1.00202 1 1.00372 0.998307
0.998681 1 1.00048 0.998206
1.02629 1.02877 0.999907 0.997684
1.01441 1.0173 1 0.997158
1.01723 1.01982 1 0.997461
1.00315 1.00132 1.00458 0.997252
1.00189 1.00506 1.00003 0.996813
0.998987 1 1 0.998987
1.00165 1 1.00325 0.998412
1.00226 1.0007 1.00378 0.997785
0.999557 1 1.00155 0.998006
1.02831 1.03826 0.992488 0.997913
1.0203 1.02273 0.999872 0.997754
1.00845 1.01155 1 0.99694
1.0035 1.00237 1.00426 0.996886
0.999364 1 1 0.999364
0.99908 1 1 0.99908
0.998947 1 1 0.998947
0.999405 1 1 0.999405
0.999089 1 1 0.999089
0.999409 1 1 0.999409
0.998964 1 1 0.998964
0.999098 1 1 0.999098
0.998887 1 1 0.998887
0.998915 1 1 0.998915
0.999062 1 1 0.999062
0.999395 1 1 0.999395
0.99983 1 1 0.99983
0.999839 1 1 0.999839
1 1 1 1
0.999844 1 1 0.999844
1 1 1 1
1 1 1 1
1 1 1 1
1 1 1 1
1 1 1 1
1 1 1 1
1 1 1 1
1 1 1 1
0.999987 1 1 0.999987
1 1 1 1
1 1 1 1
1.02866 1.03138 1 0.997366
1.0351 1.03801 0.999733 0.99746
1.03068 1.03448 0.998556 0.997766
1.03209 1.03818 0.996526 0.997598
1.03497 1.03897 0.99879 0.997363
1.03418 1.03714 1 0.997146
1.03391 1.03824 0.998474 0.997351
1.03316 1.03946 0.996377 0.997553
1.03259 1.03853 0.99659 0.997683
1.03154 1.03477 0.999094 0.997776
1.03329 1.03973 0.996288 0.997504
1.03381 1.04352 0.992952 0.997727
1.03435 1.04148 0.995322 0.997818
1.0345 1.03856 0.998717 0.997371
1.03347 1.03735 0.998843 0.997408
1.02893 1.0325 0.998885 0.997655
0.999842 1.00186 1 0.997988
1.0033 1.0057 1.00018 0.997438
1.01052 1.01293 1.00085 0.996776
1.0258 1.02859 0.9996 0.997684
1.02154 1.02399 0.999829 0.997777
1.01952 1.02236 1 0.997228
0.998867 1.00074 1 0.998128
0.998323 1 1 0.998323
1.00261 1 1.00453 0.998086
0.999645 1 1 0.999645
1.00047 1 1.00193 0.998544
0.999105 1 1.00015 0.998952
1.03332 1.03958 0.996514 0.997459
1.0314 1.03933 0.994759 0.997601
1.02451 1.03089 0.99605 0.997756
0.999834 1.00201 1 0.997826
1.00229 1.0039 1.0014 0.997005
1.00598 1.0084 1.0009 0.996695
1.02815 1.03217 0.998186 0.997915
1.01972 1.02241 0.999914 0.997457
0.999794 1 1 0.999794
0.999189 1 1 0.999189
0.998262 1.0002 1 0.998067
1.00329 1.00002 1.00522 0.998062
1.00285 1 1.00463 0.998232
0.999197 1 1.00052 0.99868
1.0323 1.04174 0.993276 0.997647
1.02387 1.03667 0.989896 0.997728
1.02332 1.03177 0.993836 0.997954
1.02058 1.02543 0.997333 0.997937
1.00066 1.00224 1.00088 0.997546
1.00553 1.00732 1.0014 0.996822
1.00294 1.00359 1.00264 0.996721
0.999895 1 1 0.999895
0.999505 1 1 0.999505
0.999295 1 1 0.999295
0.998819 1 1 0.998819
1.00007 1 1.00166 0.998414
1.00391 1 1.00582 0.998102
0.9981 1 1 0.9981
1.01934 1 1.02115 0.998228
0.999305 1 1 0.999305
1.00061 1 1.00184 0.998762
1.02663 1.02917 0.999816 0.997722
1.00248 1 1.00417 0.998312
1.00011 1 1.00215 0.997963
0.998318 1 1.00004 0.998283
1.01344 1.01632 1 0.997166
1.0184 1.02092 1 0.997534
1.00269 1.00067 1.00482 0.997216
1.00261 1.00587 1 0.996762
0.998982 1 1.00002 0.998965
1.00176 1 1.00334 0.998426
1.00248 1.00052 1.00415 0.997812
0.999401 1 1.00137 0.998038
1.0297 1.03914 0.992964 0.997928
1.02014 1.02253 0.999949 0.997713
1.00951 1.01256 1 0.99698
1.00388 1.00328 1.00377 0.99684
0.99927 1 1.0005 0.998771
1.02712 1.04162 0.988122 0.99793
1.00112 1 1.00297 0.998148
1.00143 1.00122 1.00268 0.997535
1.02765 1.03193 0.997834 0.998016
1.00974 1.0127 1 0.997075
1.00491 1.005 1.00323 0.996687
0.999093 1 1 0.999093
0.998942 1 1 0.998942
0.998866 1 1 0.998866
0.999408 1 1 0.999408