# vtk DataFile Version 2.0
Wound Healing Simulation
ASCII
DATASET UNSTRUCTURED_GRID
POINTS 3012 float
69.9759 18.75 4
67.2507 60.3285 4
69.976 18.75 2
73.0099 25.446 4
71.1327 20.9142 4
68.6801 16.6661 4
67.821 19.9261 3.97252
67.2507 60.3286 2
71.1327 54.0858 4
68.6801 58.3339 4
65.6939 62.2254 4
65.3078 58.9988 3.97119
74.6784 42.3946 4
73.7221 47.2057 4
69.9759 18.75 0
73.0099 25.446 2
68.6801 16.6661 2
71.1327 20.9142 2
67.8215 19.9299 2
74.6792 32.6053 4
73.7222 27.7943 4
72.1454 23.1494 4
70.611 26.2217 3.97263
68.8815 21.9577 3.97277
67.2507 14.6715 4
66.6322 17.9732 3.97129
65.7396 21.0455 3.96171
67.2507 60.3285 0
71.1327 54.0858 2
68.6801 58.3339 2
65.694 62.2255 2
65.3093 58.994 2
72.1454 51.8506 4
69.9759 56.25 4
68.8318 53.1144 3.97261
64.0165 64.0165 4
66.6059 57.1329 3.97239
63.8802 60.7617 3.96756
63.4701 57.7555 3.96064
60.3285 67.2507 4
74.6792 42.3947 2
73.7222 47.2057 2
74.9194 39.9526 4
74.2788 44.8158 4
72.1657 42.086 3.97433
73.0099 49.554 4
71.2462 46.5985 3.97272
73.0099 25.446 0
71.1327 20.9142 0
68.6801 16.6661 0
67.821 19.9261 0.0274799
74.6792 32.6053 2
73.7222 27.7943 2
67.2508 14.6715 2
72.1455 23.1494 2
70.6103 26.2228 2
66.6332 17.9775 2
68.8815 21.9605 2
65.7388 21.0466 2
74.9197 35.0474 4
74.2794 30.1841 4
72.1825 32.945 3.97454
71.2755 28.4328 3.97281
69.8119 24.0596 3.97278
68.3163 26.9626 3.96423
66.7099 22.9507 3.96261
65.694 12.7746 4
65.3189 16.1063 3.97012
64.656 19.2174 3.96045
63.7129 22.1038 3.96454
71.1327 54.0858 0
65.6939 62.2254 0
68.6801 58.3339 0
65.3078 58.9988 0.028808
72.1455 51.8506 2
69.9759 56.25 2
68.832 53.1111 2
64.0165 64.0165 2
66.6071 57.128 2
63.8812 60.7565 2
63.461 57.7536 2
62.2254 65.694 4
58.8903 65.4114 3.97896
69.7649 50.9902 3.97257
67.7789 55.1679 3.97277
66.5866 52.1925 3.9628
62.3312 62.4234 3.97302
64.6073 56.0138 3.96153
62.189 59.3857 3.96001
61.6853 56.6175 3.96042
58.3339 68.6801 4
60.3285 67.2508 2
73.7221 47.2057 0
74.6784 42.3946 0
74.9197 39.9526 2
74.2794 44.8159 2
72.1647 42.0852 2
73.0099 49.554 2
71.2454 46.5972 2
75 37.5 4
72.403 39.8028 3.97529
71.7797 44.3532 3.97384
69.7911 41.7881 3.96614
70.5716 48.8144 3.97255
68.8817 46.0079 3.96552
74.6792 32.6053 0
73.7222 27.7943 0
67.2507 14.6715 0
72.1454 23.1494 0
70.611 26.2217 0.0273699
68.8815 21.9577 0.0272309
66.6322 17.9732 0.0287127
65.7396 21.0455 0.0382861
74.9197 35.0474 2
74.2794 30.1841 2
72.1813 32.9449 2
71.2745 28.4334 2
65.694 12.7745 2
65.3197 16.1111 2
69.8115 24.0614 2
68.3201 26.9632 2
64.6501 19.219 2
66.7116 22.9517 2
63.7126 22.1044 2
72.4109 35.2255 3.97537
71.8014 30.678 3.974
69.8304 33.2738 3.96576
68.9448 29.0469 3.96462
67.5675 24.9265 3.9634
66.012 27.685 3.97183
64.0165 10.9835 4
64.5739 23.8943 3.96696
63.8837 14.3323 3.96629
63.4737 17.4691 3.95835
62.7379 20.394 3.96206
61.7928 23.0622 3.97064
60.6798 11.1032 3.9741
57.6038 11.4853 3.96421
72.1454 51.8506 0
69.9759 56.25 0
68.8318 53.1144 0.0273891
64.0165 64.0165 0
63.8802 60.7617 0.032438
66.6059 57.1329 0.027606
63.4701 57.7555 0.0393645
62.2255 65.694 2
58.8929 65.4061 2
69.7647 50.9879 2
67.7797 55.1637 2
66.5878 52.1913 2
62.333 62.4167 2
64.602 56.0121 2
62.1843 59.3855 2
61.6826 56.6178 2
60.6647 63.9725 3.97636
57.0209 66.7318 3.98095
57.5488 63.6626 3.97112
67.4498 50.1624 3.96369
65.6417 54.1559 3.96205
64.3294 51.3209 3.96763
60.7652 60.9116 3.96617
62.6557 55.0033 3.96343
60.5508 58.0965 3.9568
60.1007 55.6814 3.96586
56.25 69.9759 4
58.3339 68.6801 2
60.3285 67.2507 0
58.9173 9.66025 3.97639
62.2254 9.30607 4
73.0099 49.554 0
74.2788 44.8158 0
71.2462 46.5985 0.0272792
72.1657 42.086 0.0256727
74.9194 39.9526 0
75 37.5 2
72.4025 39.8024 2
71.7792 44.3521 2
69.7931 41.7877 2
70.5711 48.8128 2
68.8861 46.0074 2
72.4865 37.513 3.97509
70.0328 39.6577 3.96632
69.4128 43.9038 3.96591
67.4395 41.4821 3.97588
68.2204 48.0964 3.96484
66.5217 45.4022 3.97476
74.9197 35.0474 0
74.2794 30.1841 0
72.1825 32.945 0.0254594
71.2755 28.4328 0.0271908
65.694 12.7746 0
65.3189 16.1063 0.0298814
69.8119 24.0596 0.0272173
68.3163 26.9626 0.0357728
66.7099 22.9507 0.0373936
64.656 19.2174 0.0395489
63.7129 22.1038 0.035462
72.4105 35.2251 2
71.8008 30.6784 2
69.8318 33.2742 2
68.9494 29.0473 2
64.0165 10.9835 2
63.8848 14.3381 2
63.4697 17.469 2
67.5704 24.9273 2
66.0099 27.6863 2
62.7402 20.3937 2
64.5726 23.8953 2
61.7905 23.0629 2
60.6822 11.1084 2
57.603 11.4774 2
70.0505 35.3958 3.96621
69.4525 31.1565 3.96486
67.511 33.6107 3.97521
66.6065 29.6628 3.97414
65.3357 25.7581 3.96928
63.8027 28.3496 3.97557
62.3362 12.6603 3.97138
62.539 24.7493 3.97346
62.1819 15.8079 3.95947
61.6542 18.7631 3.9593
60.9329 21.4676 3.96681
60.0135 23.8938 3.97382
59.237 12.8192 3.96263
55.8664 10.2707 3.97342
56.3898 13.1884 3.96518
69.7649 50.9902 0.0274267
62.2254 65.694 0
58.8903 65.4114 0.0210435
67.7789 55.1679 0.0272294
66.5866 52.1925 0.0371963
62.3312 62.4234 0.0269798
62.189 59.3857 0.039989
64.6073 56.0138 0.0384749
61.6853 56.6175 0.0395784
60.6676 63.9684 2
57.0242 66.7276 2
57.5504 63.6684 2
67.4518 50.1614 2
65.6401 54.1543 2
64.3272 51.32 2
60.7613 60.9124 2
62.6557 55.0037 2
60.544 58.0964 2
60.1002 55.6818 2
55.0669 67.93 3.98447
59.2116 62.3279 3.96583
55.7938 64.8757 3.97167
56.3154 62.0327 3.97847
65.1136 49.349 3.96977
63.5124 53.2258 3.9653
62.0763 50.5388 3.97234
59.2762 59.5014 3.95682
60.7992 54.1996 3.96894
59.0621 56.8987 3.96041
58.9373 55.0498 3.96954
48.0987 68.57 3.98071
50.9448 69.9306 3.98747
54.0858 71.1327 4
56.25 69.976 2
58.3339 68.6801 0
57.054 8.33994 3.97658
60.3285 7.74928 4
58.9198 9.66601 2
62.2255 9.30602 2
70.5716 48.8144 0.0274501
71.7797 44.3532 0.0261632
68.8817 46.0079 0.0344761
69.7911 41.7881 0.033862
72.403 39.8028 0.0247112
75 37.5 0
72.4855 37.5126 2
70.0339 39.6575 2
69.4148 43.9032 2
67.4361 41.4813 2
68.2223 48.0954 2
66.5182 45.4009 2
70.1212 37.5237 3.96643
67.6874 39.5066 3.97569
67.051 43.4437 3.97553
65.2235 41.1813 3.97675
65.8586 47.3686 3.97241
64.2838 44.778 3.9758
72.4109 35.2255 0.0246323
71.8014 30.678 0.0259984
69.8304 33.2738 0.034243
68.9448 29.0469 0.0353755
64.0165 10.9835 0
63.8837 14.3323 0.0337079
63.4737 17.4691 0.0416452
67.5675 24.9265 0.0366005
66.012 27.685 0.02817
64.5739 23.8943 0.0330358
62.7379 20.394 0.0379393
61.7928 23.0622 0.0293625
60.6798 11.1032 0.0258999
57.6038 11.4853 0.035792
70.0508 35.3959 2
69.4553 31.1568 2
67.5087 33.6114 2
66.6047 29.6639 2
62.3382 12.6666 2
62.1787 15.8075 2
61.6584 18.7622 2
65.3338 25.7592 2
63.8006 28.3502 2
60.931 21.4679 2
62.5372 24.75 2
60.0128 23.8941 2
59.2355 12.817 2
56.3891 13.1843 2
55.8666 10.278 2
67.7316 35.5587 3.97533
67.1152 31.6518 3.97497
65.3843 33.9616 3.9768
64.3178 30.2689 3.97553
63.2076 26.5184 3.97521
61.7783 28.9046 3.97529
60.7646 14.254 3.96279
60.6028 25.5003 3.97506
60.5079 17.1998 3.95629
59.9396 19.9522 3.96223
59.2589 22.4341 3.9698
58.4735 24.5296 3.9742
54.0298 9.16876 3.96889
57.882 14.3972 3.9573
54.7756 12.0802 3.96878
55.2743 14.7491 3.95622
67.4498 50.1624 0.0363145
57.0209 66.7318 0.0190527
60.6647 63.9725 0.0236425
57.5488 63.6626 0.0288813
65.6417 54.1559 0.0379523
64.3294 51.3209 0.0323712
60.7652 60.9116 0.0338289
60.5508 58.0965 0.0431978
62.6557 55.0033 0.0365664
60.1007 55.6814 0.0341395
55.0706 67.9266 2
59.2099 62.3316 2
55.796 64.875 2
56.3139 62.0339 2
65.111 49.3479 2
63.511 53.2254 2
62.0749 50.5383 2
59.2894 59.5094 2
60.7993 54.1999 2
59.0711 56.9016 2
58.9457 55.0518 2
53.0386 68.9977 3.98496
53.9599 65.9996 3.97203
57.8544 60.817 3.96171
54.6612 63.1397 3.96527
55.1841 60.5482 3.97575
62.8156 48.5558 3.97459
61.4157 52.4615 3.97067
59.7624 49.8561 3.97308
57.8605 58.1645 3.95729
58.9656 53.8026 3.97173
57.7721 55.6567 3.96284
50.1044 67.8474 3.97804
47.4572 66.5645 3.97571
46.053 69.1511 3.98309
48.1008 68.5699 2
48.7989 70.7218 3.9887
50.9479 69.9286 2
51.8506 72.1454 4
54.0858 71.1327 2
56.25 69.9759 0
55.0988 7.14391 3.98206
58.3339 6.31992 4
57.0577 8.34641 2
60.3286 7.74926 2
58.9173 9.66025 0.0236091
62.2254 9.30607 0
68.2204 48.0964 0.0351565
69.4128 43.9038 0.0340947
66.5217 45.4022 0.0252353
67.4395 41.4821 0.0241151
70.0328 39.6577 0.033681
72.4865 37.513 0.0249058
70.1218 37.5237 2
67.6841 39.5061 2
67.0486 43.4427 2
65.2214 41.1805 2
65.8561 47.3674 2
64.2816 44.7773 2
67.791 37.5249 3.97548
65.4662 39.3576 3.97687
64.8287 42.9752 3.97654
63.2941 40.8881 3.97669
63.583 46.6242 3.97516
62.2926 44.125 3.97585
70.0505 35.3958 0.0337859
69.4525 31.1565 0.0351376
67.511 33.6107 0.0247902
66.6065 29.6628 0.0258584
62.3362 12.6603 0.0286222
62.1819 15.8079 0.0405273
61.6542 18.7631 0.0406998
65.3357 25.7581 0.0307238
63.8027 28.3496 0.0244321
62.539 24.7493 0.0265364
60.9329 21.4676 0.033189
60.0135 23.8938 0.0261825
59.237 12.8192 0.0373719
56.3898 13.1884 0.0348198
55.8664 10.2707 0.0265811
67.7286 35.559 2
67.1137 31.6527 2
65.3819 33.9624 2
64.316 30.2698 2
60.7616 14.2536 2
60.5004 17.2014 2
59.9351 19.9528 2
63.2062 26.5191 2
61.7778 28.9047 2
59.2621 22.4334 2
60.602 25.5006 2
58.4713 24.5317 2
57.8849 14.3954 2
55.2699 14.7391 2
54.0332 9.16376 2
54.7693 12.087 2
65.5663 35.6861 3.97679
64.8487 32.2073 3.97626
63.8715 34.2914 3.97654
62.0966 30.7359 3.97568
61.185 27.219 3.97509
60.269 29.2917 3.97578
59.2467 15.7369 3.95566
58.7779 26.0047 3.97546
58.9039 18.485 3.95901
58.3544 21.0379 3.96412
57.7966 23.3088 3.97057
57.416 24.9007 3.9757
52.1072 8.16561 3.97063
53.0399 11.0877 3.96531
56.6159 15.8431 3.95576
53.792 13.7714 3.97637
54.2926 16.128 3.95631
55.0669 67.93 0.015527
65.1136 49.349 0.0302282
55.7938 64.8757 0.0283278
59.2116 62.3279 0.0341714
56.3154 62.0327 0.0215328
63.5124 53.2258 0.0346987
62.0763 50.5388 0.0276646
59.2762 59.5014 0.0431785
59.0621 56.8987 0.039593
60.7992 54.1996 0.0310594
58.9373 55.0498 0.0304642
53.0422 68.9956 2
53.962 65.9976 2
57.8561 60.8197 2
54.66 63.1408 2
55.1825 60.5488 2
62.8142 48.5551 2
61.4153 52.4614 2
59.7633 49.8558 2
57.8665 58.168 2
58.9709 53.8036 2
57.7696 55.6556 2
52.0642 66.9865 3.97522
52.9373 64.1754 3.97289
56.5744 59.4122 3.95655
53.639 61.5279 3.97051
[...]
POINT_DATA 3012
SCALARS rho_c_phif_kappa float 4
LOOKUP_TABLE default
1000 0 1.00231 0.272642
1000 0 1.00186 0.27301
1000 0 1.00231 0.272836
1000 0 1.00231 0.273179
1000 0 1.00231 0.272793
1000 0 1.00231 0.272579
1011.6 1.27477e-08 1.00272 0.271012
1000 0 1.00186 0.27302
1000 0 1.00186 0.2738
1000 0 1.00186 0.273389
1000 0 1.00231 0.272542
1011.55 1.24861e-08 1.00294 0.271018
1000 0 1.0023 0.273735
1000 0 1.0023 0.274559
1000 0 1.00231 0.273015
1000 0 1.0023 0.273751
1000 0 1.00231 0.272667
1000 0 1.00231 0.273126
1011.45 1.2788e-08 1.00272 0.270936
1000 0 1.00185 0.273764
1000 0 1.0023 0.273307
1000 0 1.00231 0.272991
1011.56 1.29041e-08 1.00271 0.272356
1011.58 1.28098e-08 1.00271 0.271504
1000 0 1.00232 0.272608
1011.63 1.2688e-08 1.00272 0.270477
1012.87 1.47395e-08 1.00313 0.265693
1000 0 1.00186 0.273053
1000 0 1.00208 0.273363
1000 0 1.00208 0.273013
1000 0 1.00186 0.273169
1011.52 1.25342e-08 1.00294 0.27095
1000 0 1.0023 0.273072
1000 0 1.00231 0.272575
1011.6 1.28344e-08 1.00271 0.271062
1000 0 1.00186 0.273934
1011.54 1.2588e-08 1.00272 0.270912
1011.6 1.24356e-08 1.00295 0.27097
1012.88 1.46829e-08 1.00314 0.265025
1000 0 1.00186 0.274235
1000 0 1.00186 0.273771
1000 0 1.00208 0.274103
1000 0 1.00186 0.273828
1000 0 1.0023 0.274712
1011.51 1.29324e-08 1.00292 0.272431
1000 0 1.00186 0.274403
1011.58 1.29677e-08 1.00271 0.271955
1000 0 1.0023 0.274347
1000 0 1.00231 0.273461
1000 0 1.00232 0.27274
1011.6 1.27477e-08 1.00272 0.270866
1000 0 1.00208 0.274122
1000 0 1.0023 0.273938
1000 0 1.00232 0.272641
1000 0 1.0023 0.273461
1011.31 1.29406e-08 1.00271 0.272064
1011.54 1.27321e-08 1.00272 0.270465
1011.38 1.28471e-08 1.00271 0.271346
1012.89 1.47356e-08 1.00313 0.26553
1000 0 1.00185 0.273835
1000 0 1.0023 0.273413
1011.5 1.29033e-08 1.0027 0.272856
1011.54 1.29235e-08 1.00271 0.27259
1011.57 1.28654e-08 1.00271 0.271968
1012.84 1.47548e-08 1.00312 0.267757
1012.86 1.47458e-08 1.00312 0.26593
1000 0 1.00232 0.272861
1011.68 1.2638e-08 1.00273 0.269999
1012.89 1.47343e-08 1.00314 0.264968
1012.77 1.46837e-08 1.00312 0.25877
1000 0 1.00186 0.273134
1000 0 1.00186 0.273406
1000 0 1.00186 0.272945
1011.55 1.24861e-08 1.00294 0.270883
1000 0 1.00186 0.273314
1000 0 1.00186 0.272992
1011.41 1.28721e-08 1.00294 0.271275
1000 0 1.00209 0.273458
1011.46 1.26322e-08 1.00294 0.271
1011.62 1.2489e-08 1.00284 0.270848
1012.89 1.46815e-08 1.00314 0.265193
1000 0 1.00186 0.273855
1011.92 1.2495e-08 1.00298 0.27186
1011.61 1.29176e-08 1.00293 0.271556
1011.57 1.27161e-08 1.00294 0.271094
1012.86 1.47509e-08 1.00313 0.265735
1011.68 1.24277e-08 1.00273 0.270807
1012.87 1.47036e-08 1.00314 0.264833
1012.92 1.46916e-08 1.00315 0.265569
1012.81 1.47242e-08 1.00312 0.25895
1000 0 1.00186 0.27453
1000 0 1.00186 0.274447
1000 0 1.00186 0.273575
1000 0 1.00186 0.273756
1000 0 1.00185 0.273812
1000 0 1.00208 0.27421
1011.18 1.29672e-08 1.00281 0.272363
1000 0 1.00208 0.27391
1011.36 1.30046e-08 1.00282 0.272168
1000 0 1.00185 0.273833
1011.49 1.29065e-08 1.00292 0.272613
1011.56 1.29547e-08 1.00271 0.272109
1012.83 1.47516e-08 1.00312 0.269218
1011.6 1.29606e-08 1.00271 0.271779
1012.85 1.4765e-08 1.00312 0.268401
1000 0 1.0023 0.27371
1000 0 1.0023 0.27461
1000 0 1.00232 0.272671
1000 0 1.0023 0.273935
1011.56 1.29041e-08 1.00271 0.271782
1011.58 1.28098e-08 1.00271 0.271197
1011.63 1.2688e-08 1.00272 0.270407
1012.87 1.47395e-08 1.00313 0.265374
1000 0 1.00185 0.273801
1000 0 1.0023 0.274047
1011.18 1.29382e-08 1.00281 0.272456
1011.3 1.29605e-08 1.00271 0.272309
1000 0 1.00209 0.27277
1011.64 1.26868e-08 1.00273 0.270329
1011.35 1.29016e-08 1.00271 0.271719
1012.87 1.47487e-08 1.00312 0.267675
1012.9 1.47318e-08 1.00314 0.264637
1012.88 1.4741e-08 1.00313 0.266061
1012.77 1.46845e-08 1.00312 0.258797
1011.46 1.28935e-08 1.00292 0.272669
1011.53 1.29212e-08 1.00271 0.272692
1012.82 1.4745e-08 1.00311 0.269167
1012.84 1.47557e-08 1.00311 0.268409
1012.85 1.47516e-08 1.00312 0.266753
1012.75 1.46538e-08 1.00311 0.263196
1000 0 1.00186 0.273503
1012.76 1.467e-08 1.00311 0.259624
1011.73 1.26008e-08 1.00296 0.270231
1012.91 1.47337e-08 1.00314 0.264289
1012.78 1.47e-08 1.00312 0.25787
1012.7 1.45992e-08 1.00311 0.255221
1011.87 1.25782e-08 1.00298 0.270903
1013.04 1.47973e-08 1.00316 0.268762
1000 0 1.00186 0.273302
1000 0 1.00186 0.273005
1011.6 1.28344e-08 1.00293 0.271314
1000 0 1.00186 0.273798
1011.6 1.24356e-08 1.00295 0.270742
1011.54 1.2588e-08 1.00294 0.271006
1012.88 1.46829e-08 1.00314 0.265357
1000 0 1.00186 0.274043
1011.99 1.25352e-08 1.00299 0.272137
1011.4 1.29538e-08 1.00282 0.271496
1011.42 1.27563e-08 1.00283 0.271019
1012.88 1.47461e-08 1.00313 0.265754
1011.71 1.24796e-08 1.00296 0.27081
1012.88 1.47018e-08 1.00314 0.264985
1012.92 1.46876e-08 1.00315 0.265862
1012.81 1.47257e-08 1.00312 0.258571
1011.77 1.2457e-08 1.00297 0.271109
1012.04 1.254e-08 1.003 0.272533
1013.06 1.47775e-08 1.00316 0.270204
1012.86 1.47637e-08 1.00313 0.266559
1012.87 1.47295e-08 1.00313 0.265164
1012.75 1.46539e-08 1.00311 0.259214
1012.96 1.47179e-08 1.00315 0.266845
1012.79 1.46996e-08 1.00312 0.25743
1012.82 1.47455e-08 1.00313 0.259863
1012.74 1.46414e-08 1.00312 0.255542
1000 0 1.00186 0.274646
1000 0 1.00186 0.274616
1000 0 1.00186 0.274564
1011.98 1.25978e-08 1.00299 0.271772
1000 0 1.00186 0.273871
1000 0 1.00186 0.273458
1000 0 1.00186 0.273682
1011.58 1.29677e-08 1.00293 0.272416
1011.51 1.29324e-08 1.00292 0.272636
1000 0 1.00186 0.273831
1000 0 1.00185 0.273835
1011.4 1.29385e-08 1.00292 0.272634
1011.49 1.29888e-08 1.00282 0.272323
1012.86 1.47465e-08 1.00312 0.269221
1011.36 1.29969e-08 1.00293 0.272071
1012.87 1.47582e-08 1.00312 0.268345
1011.45 1.28864e-08 1.00291 0.272651
1012.82 1.47442e-08 1.00312 0.269499
1012.84 1.47582e-08 1.00312 0.268877
1012.75 1.46474e-08 1.00311 0.266603
1012.85 1.47673e-08 1.00313 0.267562
1012.75 1.46483e-08 1.00311 0.264357
1000 0 1.00185 0.273816
1000 0 1.0023 0.274731
1011.5 1.29033e-08 1.00293 0.272435
1011.54 1.29235e-08 1.00271 0.272023
1000 0 1.00186 0.27334
1011.68 1.2638e-08 1.00273 0.270664
1011.57 1.28654e-08 1.00271 0.27148
1012.84 1.47548e-08 1.00312 0.267571
1012.86 1.47458e-08 1.00313 0.266179
1012.89 1.47343e-08 1.00314 0.264367
1012.77 1.46837e-08 1.00312 0.258822
1011.36 1.29253e-08 1.00292 0.272652
1011.46 1.29555e-08 1.00271 0.272433
1012.86 1.47403e-08 1.00312 0.269056
1012.86 1.47495e-08 1.00312 0.268424
1000 0 1.00186 0.273375
1011.74 1.26559e-08 1.00285 0.270453
1012.92 1.47317e-08 1.00314 0.264261
1012.87 1.4746e-08 1.00312 0.266681
1012.75 1.46544e-08 1.00311 0.262898
1012.78 1.47007e-08 1.00312 0.257888
1012.76 1.46707e-08 1.00311 0.259822
1012.7 1.45994e-08 1.00311 0.25528
1011.94 1.26242e-08 1.00298 0.270798
1013.03 1.47891e-08 1.00316 0.268806
1012.82 1.47414e-08 1.00312 0.269506
1012.84 1.47523e-08 1.00311 0.268785
1012.75 1.4652e-08 1.00311 0.266349
1012.75 1.46502e-08 1.00311 0.26404
1012.76 1.46605e-08 1.00311 0.261114
1012.68 1.45762e-08 1.0031 0.25985
1011.8 1.25802e-08 1.00297 0.270275
1012.69 1.45877e-08 1.0031 0.256233
1012.95 1.47505e-08 1.00315 0.265428
1012.8 1.4717e-08 1.00312 0.257039
1012.72 1.46136e-08 1.00311 0.254441
1012.69 1.45888e-08 1.0031 0.253958
1013.01 1.4776e-08 1.00316 0.267643
1013.07 1.48215e-08 1.00316 0.269827
1012.88 1.48263e-08 1.00314 0.266597
1011.61 1.29176e-08 1.00293 0.271667
1000 0 1.00186 0.27432
1011.92 1.2495e-08 1.00298 0.27249
1011.57 1.27161e-08 1.00294 0.271092
1012.86 1.47509e-08 1.00313 0.265779
1011.68 1.24277e-08 1.00296 0.270785
1012.92 1.46916e-08 1.00315 0.266132
1012.87 1.47036e-08 1.00314 0.265153
1012.81 1.47242e-08 1.00312 0.258191
1011.86 1.2495e-08 1.00297 0.271327
1012.08 1.25725e-08 1.003 0.272741
1013.04 1.47717e-08 1.00316 0.270319
1012.88 1.47582e-08 1.00313 0.266556
1012.88 1.47262e-08 1.00313 0.26524
1012.75 1.46551e-08 1.00311 0.259192
1012.97 1.47147e-08 1.00315 0.267156
1012.79 1.47009e-08 1.00312 0.257614
1012.82 1.47475e-08 1.00313 0.259776
1012.74 1.46421e-08 1.00312 0.255011
1012.15 1.25834e-08 1.00301 0.272928
1013.01 1.4748e-08 1.00316 0.268986
1013.08 1.4796e-08 1.00316 0.271237
1012.9 1.48455e-08 1.00314 0.268307
1012.74 1.46382e-08 1.00311 0.26048
1012.77 1.46767e-08 1.00312 0.258125
1012.69 1.45901e-08 1.0031 0.255418
1012.85 1.47736e-08 1.00314 0.262431
1012.71 1.4609e-08 1.00311 0.2528
1012.75 1.46501e-08 1.00312 0.255494
1012.73 1.46325e-08 1.00311 0.25391
1013.1 1.48435e-08 1.00317 0.273707
1012.34 1.26637e-08 1.00302 0.273156
1000 0 1.00186 0.274707
1000 0 1.00186 0.274694
1000 0 1.00186 0.274677
1012.09 1.26425e-08 1.003 0.272206
1000 0 1.00187 0.274169
1012.06 1.2641e-08 1.00299 0.271479
1000 0 1.00186 0.273721
1011.6 1.29606e-08 1.00293 0.272082
1011.56 1.29547e-08 1.00293 0.272569
1012.85 1.4765e-08 1.00312 0.268285
1012.83 1.47516e-08 1.00312 0.269202
1011.49 1.29065e-08 1.00292 0.272661
1000 0 1.00185 0.27383
1011.08 1.29212e-08 1.00291 0.272646
1012.82 1.47399e-08 1.00312 0.269496
1012.84 1.4753e-08 1.00312 0.26883
1012.74 1.46475e-08 1.00311 0.266586
1012.87 1.47614e-08 1.00313 0.26753
1012.74 1.46489e-08 1.00311 0.264448
1012.81 1.47404e-08 1.00312 0.269596
1012.75 1.4643e-08 1.00311 0.266998
1012.75 1.46497e-08 1.00311 0.265889
1012.69 1.45887e-08 1.0031 0.264414
1012.74 1.46434e-08 1.00311 0.262396
1012.69 1.45811e-08 1.0031 0.261764
1011.46 1.28935e-08 1.00292 0.272629
1011.53 1.29212e-08 1.00271 0.272132
1012.82 1.4745e-08 1.00312 0.268966
1012.84 1.47557e-08 1.00312 0.268399
1000 0 1.00186 0.273227
1011.73 1.26008e-08 1.00273 0.27036
1012.91 1.47337e-08 1.00314 0.264262
1012.85 1.47516e-08 1.00312 0.266594
1012.75 1.46538e-08 1.00311 0.262594
1012.76 1.467e-08 1.00312 0.260026
1012.78 1.47e-08 1.00312 0.257872
1012.7 1.45992e-08 1.00311 0.255327
1011.87 1.25782e-08 1.00298 0.270667
1013.04 1.47973e-08 1.00316 0.268663
1012.82 1.47372e-08 1.00312 0.269402
1012.84 1.47475e-08 1.00312 0.268817
1012.75 1.4652e-08 1.00311 0.26626
1012.74 1.46507e-08 1.00311 0.264289
1011.82 1.26298e-08 1.00297 0.270316
1012.95 1.47442e-08 1.00315 0.265093
1012.8 1.47185e-08 1.00312 0.257146
1012.75 1.46612e-08 1.00311 0.261257
1012.68 1.45758e-08 1.0031 0.259558
1012.72 1.46144e-08 1.00311 0.254188
1012.69 1.45877e-08 1.0031 0.256243
1012.69 1.45886e-08 1.0031 0.253736
1013 1.47765e-08 1.00316 0.267874
1012.88 1.48252e-08 1.00314 0.266608
1013.05 1.48206e-08 1.00316 0.269718
1012.75 1.46466e-08 1.00311 0.267074
1012.75 1.46499e-08 1.00311 0.265269
1012.69 1.45868e-08 1.0031 0.264484
1012.68 1.45735e-08 1.0031 0.260962
1012.69 1.45785e-08 1.0031 0.257367
1012.67 1.45632e-08 1.0031 0.257119
1012.98 1.47638e-08 1.00315 0.26669
1012.68 1.45758e-08 1.0031 0.254045
1012.82 1.47421e-08 1.00313 0.258667
1012.72 1.46203e-08 1.00311 0.25169
1012.7 1.4606e-08 1.00311 0.252309
1012.67 1.4552e-08 1.0031 0.251972
1013.08 1.48386e-08 1.00316 0.271323
1012.86 1.48024e-08 1.00314 0.264707
1012.89 1.48422e-08 1.00314 0.268515
1012.83 1.47455e-08 1.00314 0.264238
1012.86 1.47637e-08 1.00313 0.266558
1012.04 1.254e-08 1.003 0.272899
1011.77 1.2457e-08 1.00297 0.271561
1013.06 1.47775e-08 1.00316 0.270461
1012.87 1.47295e-08 1.00313 0.265321
1012.75 1.46539e-08 1.00311 0.259167
1012.96 1.47179e-08 1.00315 0.267524
1012.82 1.47455e-08 1.00313 0.259718
1012.79 1.46996e-08 1.00312 0.257788
1012.74 1.46414e-08 1.00312 0.25454
1012.17 1.26087e-08 1.00301 0.273043
1013 1.47469e-08 1.00316 0.269062
1013.06 1.47935e-08 1.00316 0.271465
1012.9 1.48485e-08 1.00314 0.268492
1012.74 1.46386e-08 1.00311 0.260478
1012.77 1.46778e-08 1.00312 0.258113
1012.69 1.45896e-08 1.0031 0.255432
1012.85 1.47783e-08 1.00314 0.262708
1012.71 1.46099e-08 1.00311 0.253167
1012.75 1.46508e-08 1.00312 0.255175
1012.73 1.46333e-08 1.00311 0.25438
1012.25 1.26203e-08 1.00301 0.273107
1013.09 1.48089e-08 1.00317 0.272533
1012.88 1.48157e-08 1.00314 0.265814
1012.9 1.48623e-08 1.00315 0.269835
1012.85 1.47677e-08 1.00314 0.266176
1012.69 1.4606e-08 1.0031 0.256741
1012.7 1.45837e-08 1.00311 0.253609
1012.68 1.46435e-08 1.0031 0.252397
1012.77 1.46742e-08 1.00313 0.256292
1012.71 1.46318e-08 1.00311 0.249936
1012.73 1.46446e-08 1.00312 0.252469
1013.1 1.48294e-08 1.00317 0.27367
1012.9 1.48792e-08 1.00315 0.272905
1013.11 1.48616e-08 1.00317 0.273823
1013.1 1.48439e-08 1.00317 0.273731
1012.43 1.27085e-08 1.00278 0.273525
1012.35 1.26825e-08 1.0029 0.273509
1000 0 1.00235 0.273968
1000 0 1.00187 0.274706
1000 0 1.00186 0.2747
1012.24 1.27098e-08 1.00301 0.272725
1000 0 1.00187 0.27447
1012.17 1.26834e-08 1.003 0.272087
1000 0 1.00187 0.274044
1011.98 1.25978e-08 1.00299 0.271305
1000 0 1.00186 0.273591
1012.85 1.47673e-08 1.00313 0.267495
1012.84 1.47582e-08 1.00312 0.268812
1012.75 1.46483e-08 1.00311 0.264468
1012.75 1.46474e-08 1.00311 0.266575
1012.82 1.47442e-08 1.00312 0.269487
1011.45 1.28864e-08 1.00291 0.272626
1012.85 1.47358e-08 1.00312 0.269598
1012.75 1.4643e-08 1.00311 0.266994
1012.75 1.46501e-08 1.00311 0.265796
1012.69 1.45886e-08 1.0031 0.26435
1012.74 1.46442e-08 1.00311 0.262404
1012.69 1.4581e-08 1.0031 0.261726
1012.75 1.46419e-08 1.00311 0.267126
1012.69 1.45922e-08 1.0031 0.265176
1012.69 1.45817e-08 1.0031 0.263601
1012.69 1.46295e-08 1.0031 0.263621
1012.68 1.45796e-08 1.0031 0.258673
1012.68 1.45776e-08 1.0031 0.259132
1012.82 1.47414e-08 1.00312 0.269306
1012.84 1.47523e-08 1.00312 0.26891
1012.75 1.4652e-08 1.00311 0.266102
1012.75 1.46502e-08 1.00311 0.264571
1011.8 1.25802e-08 1.00297 0.270364
1012.95 1.47505e-08 1.00315 0.264687
1012.8 1.4717e-08 1.00312 0.257243
1012.76 1.46605e-08 1.00311 0.261412
1012.68 1.45762e-08 1.0031 0.25927
1012.69 1.45877e-08 1.0031 0.256251
1012.72 1.46136e-08 1.00311 0.253987
1012.69 1.45888e-08 1.0031 0.253589
1013.01 1.4776e-08 1.00316 0.268123
1012.88 1.48263e-08 1.00314 0.266755
1013.07 1.48215e-08 1.00316 0.269749
1012.75 1.46465e-08 1.00311 0.26699
1012.75 1.46503e-08 1.00311 0.265325
1012.69 1.45865e-08 1.0031 0.264259
1012.68 1.45733e-08 1.0031 0.261267
1012.98 1.47599e-08 1.00315 0.266417
1012.82 1.47442e-08 1.00313 0.258521
1012.73 1.46213e-08 1.00311 0.251943
1012.69 1.45783e-08 1.0031 0.25764
1012.67 1.45632e-08 1.0031 0.256886
1012.7 1.46063e-08 1.00311 0.252051
1012.68 1.45758e-08 1.0031 0.254064
1012.67 1.45517e-08 1.0031 0.252311
1012.86 1.48034e-08 1.00314 0.26435
1012.82 1.47435e-08 1.00314 0.264187
1013.07 1.4837e-08 1.00316 0.271188
1012.89 1.48448e-08 1.00314 0.269137
1012.69 1.45975e-08 1.0031 0.265137
1012.68 1.45748e-08 1.0031 0.262948
1012.68 1.45761e-08 1.0031 0.26359
1012.67 1.45746e-08 1.0031 0.258159
1012.68 1.4581e-08 1.0031 0.255224
1012.67 1.45458e-08 1.0031 0.25547
1012.84 1.47718e-08 1.00313 0.261811
1012.67 1.45458e-08 1.0031 0.251661
1012.74 1.4638e-08 1.00312 0.25198
1012.71 1.46232e-08 1.00311 0.248539
1012.69 1.45721e-08 1.0031 0.250913
1012.65 1.44561e-08 1.0031 0.251152
1013.09 1.48583e-08 1.00316 0.272258
1012.89 1.48539e-08 1.00314 0.269517
1012.79 1.47092e-08 1.00313 0.260779
1012.85 1.4772e-08 1.00314 0.266771
1012.81 1.47263e-08 1.00313 0.261177
1012.15 1.25834e-08 1.00301 0.27319
1012.74 1.46382e-08 1.00311 0.260487
1013.08 1.4796e-08 1.00316 0.271698
1013.01 1.4748e-08 1.00316 0.269053
1012.9 1.48455e-08 1.00314 0.268681
1012.77 1.46767e-08 1.00312 0.258093
1012.69 1.45901e-08 1.0031 0.255441
1012.85 1.47736e-08 1.00314 0.262899
1012.75 1.46501e-08 1.00312 0.254622
1012.71 1.4609e-08 1.00311 0.253554
1012.73 1.46325e-08 1.00311 0.254608
1012.26 1.26411e-08 1.00301 0.273181
1013.08 1.48084e-08 1.00316 0.272713
1012.88 1.48151e-08 1.00314 0.266141
1012.9 1.4864e-08 1.00315 0.270189
1012.85 1.47671e-08 1.00314 0.265765
1012.69 1.46084e-08 1.0031 0.256691
1012.7 1.45835e-08 1.00311 0.253613
1012.68 1.46459e-08 1.0031 0.25235
1012.77 1.46756e-08 1.00313 0.256424
1012.71 1.46311e-08 1.00311 0.250301
1012.73 1.46456e-08 1.00312 0.252303
1013.09 1.48186e-08 1.00317 0.273339
1012.91 1.48796e-08 1.00315 0.270804
1012.81 1.47223e-08 1.00313 0.26091
1012.87 1.47921e-08 1.00315 0.268187
1012.83 1.47542e-08 1.00314 0.262658
1012.66 1.45656e-08 1.0031 0.254617
1012.7 1.46704e-08 1.0031 0.250122
1012.56 1.39533e-08 1.00309 0.249334
1012.75 1.46713e-08 1.00312 0.251391
1012.71 1.46681e-08 1.00311 0.248828
1013.09 1.48282e-08 1.00317 0.273678
1012.9 1.48777e-08 1.00315 0.272806
1012.9 1.48805e-08 1.00315 0.272865
1012.89 1.48239e-08 1.00315 0.271596
1012.9 1.48834e-08 1.00315 0.272952
1013.11 1.48805e-08 1.00317 0.273889
1013.1 1.48592e-08 1.00317 0.273805
1012.52 1.27679e-08 1.00279 0.273562
1013.1 1.48435e-08 1.00317 0.273732
1012.43 1.27247e-08 1.00279 0.273757
1000 0 1.00236 0.273898
1012.34 1.26637e-08 1.00278 0.273732
1000 0 1.00211 0.274053
1000 0 1.00187 0.274692
1012.36 1.27717e-08 1.00302 0.273164
1012.28 1.27336e-08 1.00301 0.272532
1000 0 1.00187 0.274669
1000 0 1.00187 0.274307
1012.09 1.26425e-08 1.003 0.271872
1000 0 1.00186 0.273907
1012.74 1.46434e-08 1.00311 0.262408
1012.75 1.46497e-08 1.00311 0.265773
1012.69 1.45811e-08 1.0031 0.261708
1012.69 1.45887e-08 1.0031 0.264285
1012.75 1.4643e-08 1.00311 0.266991
1012.81 1.47404e-08 1.00312 0.269589
1012.74 1.46419e-08 1.00311 0.26713
1012.69 1.45916e-08 1.0031 0.265215
1012.69 1.4581e-08 1.0031 0.263577
1012.69 1.46288e-08 1.0031 0.263491
1012.68 1.45787e-08 1.0031 0.258615
1012.68 1.45769e-08 1.0031 0.259312
1012.69 1.45913e-08 1.0031 0.265432
1012.7 1.47124e-08 1.0031 0.264462
1012.68 1.46388e-08 1.0031 0.261928
1012.63 1.43684e-08 1.0031 0.262776
1012.68 1.46079e-08 1.0031 0.257178
1012.67 1.45427e-08 1.0031 0.258229
1012.75 1.46466e-08 1.00311 0.266917
1012.75 1.46499e-08 1.00311 0.265271
1012.69 1.45868e-08 1.0031 0.264067
1012.68 1.45735e-08 1.0031 0.261574
1012.98 1.47638e-08 1.00315 0.266203
1012.82 1.47421e-08 1.00313 0.258447
1012.72 1.46203e-08 1.00312 0.252172
1012.69 1.45785e-08 1.0031 0.257905
1012.67 1.45632e-08 1.0031 0.256671
1012.68 1.45758e-08 1.0031 0.25409
1012.7 1.4606e-08 1.00311 0.251626
1012.67 1.4552e-08 1.0031 0.252445
1012.86 1.48024e-08 1.00314 0.263951
1012.83 1.47455e-08 1.00313 0.264153
1013.08 1.48386e-08 1.00316 0.271037
1012.89 1.48422e-08 1.00314 0.269201
1012.69 1.45972e-08 1.0031 0.265139
1012.68 1.45744e-08 1.0031 0.26288
1012.68 1.45759e-08 1.0031 0.26352
1012.67 1.45745e-08 1.0031 0.25836
1012.84 1.47748e-08 1.00313 0.261739
1012.74 1.46393e-08 1.00312 0.252364
1012.71 1.46225e-08 1.00311 0.2482
1012.68 1.45807e-08 1.0031 0.255435
1012.67 1.45456e-08 1.0031 0.255379
1012.69 1.45717e-08 1.0031 0.250568
1012.67 1.45454e-08 1.0031 0.251647
1012.65 1.44551e-08 1.0031 0.251294
1012.8 1.4715e-08 1.00313 0.260572
1012.81 1.47274e-08 1.00313 0.260749
1012.85 1.47708e-08 1.00314 0.266844
1013.09 1.48588e-08 1.00316 0.272175
1012.89 1.48543e-08 1.00314 0.269563
1012.69 1.46798e-08 1.0031 0.264215
1012.68 1.45978e-08 1.0031 0.261737
1012.65 1.44962e-08 1.00309 0.255522
1012.64 1.44521e-08 1.00309 0.253464
1012.77 1.46757e-08 1.00313 0.256448
1012.65 1.44436e-08 1.00309 0.247955
1012.72 1.46423e-08 1.00311 0.247544
1012.68 1.45991e-08 1.00311 0.245093
1012.63 1.43158e-08 1.0031 0.249763
1013.11 1.48795e-08 1.00316 0.272891
1012.89 1.48621e-08 1.00315 0.270175
1012.86 1.47882e-08 1.00315 0.26848
1012.79 1.4703e-08 1.00313 0.257106
1012.84 1.47559e-08 1.00314 0.263487
1012.8 1.47088e-08 1.00313 0.257806
1012.25 1.26203e-08 1.00301 0.273232
1013.09 1.48089e-08 1.00316 0.27287
1012.69 1.4606e-08 1.0031 0.256638
1012.9 1.48623e-08 1.00315 0.270575
1012.88 1.48157e-08 1.00314 0.266518
1012.85 1.47677e-08 1.00314 0.265381
1012.7 1.45837e-08 1.00311 0.253621
1012.68 1.46435e-08 1.0031 0.252313
1012.77 1.46742e-08 1.00313 0.256636
1012.73 1.46446e-08 1.00312 0.252371
1012.71 1.46318e-08 1.00311 0.250644
1013.09 1.48176e-08 1.00316 0.273408
1012.91 1.48813e-08 1.00315 0.271245
1012.81 1.47225e-08 1.00313 0.261055
1012.87 1.47937e-08 1.00315 0.268262
1012.84 1.47613e-08 1.00314 0.26237
1012.67 1.45539e-08 1.0031 0.254578
1012.7 1.46732e-08 1.0031 0.250147
1012.57 1.39425e-08 1.00309 0.249291
1012.75 1.46722e-08 1.00312 0.251145
1012.71 1.46703e-08 1.00311 0.248433
1012.9 1.48783e-08 1.00315 0.272198
1012.89 1.48149e-08 1.00315 0.269436