# vtk DataFile Version 2.0
Wound Healing Simulation
ASCII
DATASET UNSTRUCTURED_GRID
POINTS 3012 float
69.9759 18.75 4
67.2507 60.3285 4
69.976 18.75 2
73.0099 25.446 4
71.1327 20.9142 4
68.6801 16.6661 4
67.8246 19.9262 3.98051
67.2507 60.3286 2
71.1327 54.0858 4
68.6801 58.3339 4
65.6939 62.2254 4
65.3112 59.0006 3.97956
74.6784 42.3946 4
73.7221 47.2057 4
69.9759 18.75 0
73.0099 25.446 2
68.6801 16.6661 2
71.1327 20.9142 2
67.8252 19.9296 2
74.6792 32.6053 4
73.7222 27.7943 4
72.1454 23.1494 4
70.6134 26.2209 3.98008
68.8848 21.958 3.98095
67.2507 14.6715 4
66.636 17.9724 3.97956
65.794 21.027 3.96989
67.2507 60.3285 0
71.1327 54.0858 2
68.6801 58.3339 2
65.694 62.2255 2
65.3124 58.9967 2
72.1454 51.8506 4
69.9759 56.25 4
68.8356 53.113 3.98014
64.0165 64.0165 4
66.6098 57.1334 3.98013
63.8843 60.7649 3.97974
63.4973 57.7682 3.97103
60.3285 67.2507 4
74.6792 42.3947 2
73.7222 47.2057 2
74.9194 39.9526 4
74.2788 44.8158 4
72.1677 42.0855 3.97978
73.0099 49.554 4
71.2486 46.5979 3.97937
73.0099 25.446 0
71.1327 20.9142 0
68.6801 16.6661 0
67.8246 19.9262 0.0194888
74.6792 32.6053 2
73.7222 27.7943 2
67.2508 14.6715 2
72.1455 23.1494 2
70.6133 26.2215 2
66.637 17.9766 2
68.8852 21.9602 2
65.7934 21.028 2
74.9197 35.0474 4
74.2794 30.1841 4
72.1843 32.9434 3.98003
71.2775 28.4314 3.97966
69.8147 24.0595 3.9807
68.3442 26.9522 3.96908
66.7596 22.9344 3.96949
65.694 12.7746 4
65.3223 16.1045 3.97914
64.7103 19.1979 3.97024
63.8781 22.0406 3.96639
71.1327 54.0858 0
65.6939 62.2254 0
68.6801 58.3339 0
65.3112 59.0006 0.0204418
72.1455 51.8506 2
69.9759 56.25 2
68.8357 53.111 2
64.0165 64.0165 2
66.6107 57.1296 2
63.886 60.7614 2
63.4968 57.7678 2
62.2254 65.694 4
58.8939 65.4139 3.98932
69.7681 50.9888 3.97985
67.7828 55.167 3.97999
66.6466 52.2079 3.96872
62.335 62.4268 3.98377
64.6578 56.0292 3.97012
62.1989 59.3977 3.9694
61.8164 56.6735 3.96618
58.3339 68.6801 4
60.3285 67.2508 2
73.7221 47.2057 0
74.6784 42.3946 0
74.9197 39.9526 2
74.2794 44.8159 2
72.1672 42.0854 2
73.0099 49.554 2
71.2485 46.5977 2
75 37.5 4
72.405 39.8022 3.9804
71.782 44.3527 3.97977
69.802 41.7894 3.96927
70.5744 48.8134 3.97947
68.9097 46.014 3.96884
74.6792 32.6053 0
73.7222 27.7943 0
67.2507 14.6715 0
72.1454 23.1494 0
70.6134 26.2209 0.0199183
68.8848 21.958 0.0190459
66.636 17.9724 0.0204365
65.794 21.027 0.0301101
74.9197 35.0474 2
74.2794 30.1841 2
72.1838 32.9438 2
71.2774 28.4319 2
65.694 12.7745 2
65.3239 16.1089 2
69.8148 24.0607 2
68.3441 26.9529 2
64.7097 19.1988 2
66.7592 22.9354 2
63.8776 22.0411 2
72.4128 35.2242 3.98045
71.8034 30.6763 3.98007
69.8379 33.2688 3.96943
68.9636 29.0388 3.9691
67.6086 24.9129 3.96919
66.1776 27.6389 3.967
64.0165 10.9835 4
64.7441 23.8348 3.96664
63.8886 14.3286 3.98062
63.5094 17.4522 3.97087
62.8992 20.3273 3.96602
62.0499 22.9596 3.96684
60.683 11.0989 3.98523
57.6111 11.4535 3.97693
72.1454 51.8506 0
69.9759 56.25 0
68.8356 53.113 0.0198593
64.0165 64.0165 0
63.8843 60.7649 0.020261
66.6098 57.1334 0.0198679
63.4973 57.7682 0.028969
62.2255 65.694 2
58.8953 65.4129 2
69.7681 50.9878 2
67.7833 55.164 2
66.6461 52.207 2
62.3369 62.4242 2
64.6572 56.0286 2
62.1983 59.398 2
61.8158 56.6734 2
60.6677 63.9763 3.98633
57.025 66.7346 3.99077
57.5565 63.6879 3.97901
67.5047 50.1755 3.96845
65.6988 54.1716 3.96923
64.5221 51.3792 3.96585
60.7704 60.932 3.9732
62.8135 55.0618 3.96632
60.6491 58.1474 3.96397
60.317 55.7721 3.96526
56.25 69.9759 4
58.3339 68.6801 2
60.3285 67.2507 0
58.9204 9.65688 3.9871
62.2254 9.30607 4
73.0099 49.554 0
74.2788 44.8158 0
71.2486 46.5979 0.0206296
72.1677 42.0855 0.0202215
74.9194 39.9526 0
75 37.5 2
72.4049 39.8023 2
71.7819 44.3524 2
69.8014 41.7891 2
70.5742 48.8131 2
68.9097 46.0135 2
72.4884 37.512 3.97999
70.0393 39.6573 3.96937
69.4281 43.907 3.96912
67.5805 41.4953 3.96834
68.2632 48.1061 3.96851
66.6865 45.4351 3.96754
74.9197 35.0474 0
74.2794 30.1841 0
72.1843 32.9434 0.0199667
71.2775 28.4314 0.0203433
65.694 12.7746 0
65.3223 16.1045 0.0208648
69.8147 24.0595 0.0192999
68.3442 26.9522 0.0309198
66.7596 22.9344 0.0305131
64.7103 19.1979 0.0297616
63.8781 22.0406 0.0336053
72.4128 35.2243 2
71.8034 30.6769 2
69.8374 33.2692 2
68.9636 29.0394 2
64.0165 10.9835 2
63.8907 14.3325 2
63.5089 17.453 2
67.6083 24.9137 2
66.1777 27.6393 2
62.8986 20.3277 2
64.7437 23.8353 2
62.0494 22.9601 2
60.6855 11.1015 2
57.6121 11.4518 2
70.056 35.3922 3.96951
69.4649 31.15 3.96921
67.6419 33.5929 3.96806
66.7546 29.6266 3.96733
65.5081 25.7039 3.96675
64.0753 28.2701 3.97005
62.3406 12.6561 3.98364
62.804 24.6534 3.9681
62.1952 15.7928 3.97114
61.8049 18.6948 3.96612
61.1816 21.3591 3.96526
60.3378 23.7563 3.96918
59.2441 12.7861 3.97405
55.8736 10.2387 3.97915
56.4027 13.1308 3.97347
69.7681 50.9888 0.0201454
62.2254 65.694 0
58.8939 65.4139 0.0106789
67.7828 55.167 0.0200123
66.6466 52.2079 0.0312776
62.335 62.4268 0.0162335
62.1989 59.3977 0.0306006
64.6578 56.0292 0.0298824
61.8164 56.6735 0.0338201
60.6695 63.9747 2
57.026 66.7342 2
57.5565 63.6896 2
67.5044 50.1747 2
65.6981 54.1708 2
64.522 51.3789 2
60.7702 60.9327 2
62.8128 55.0615 2
60.6488 58.1476 2
60.3166 55.7719 2
55.071 67.9315 3.99169
59.2168 62.3603 3.97438
55.8039 64.9074 3.98335
56.3239 62.0784 3.97499
65.3105 49.402 3.96626
63.6972 53.2869 3.96564
62.38 50.6335 3.96722
59.3269 59.5454 3.96804
61.0568 54.2951 3.96588
59.271 56.9935 3.96377
59.223 55.1648 3.96523
48.1016 68.5772 3.98712
50.9487 69.9312 3.99181
54.0858 71.1327 4
56.25 69.976 2
58.3339 68.6801 0
57.0579 8.33668 3.98836
60.3285 7.74928 4
58.9228 9.65847 2
62.2255 9.30602 2
70.5744 48.8134 0.0205269
71.782 44.3527 0.0202333
68.9097 46.014 0.0311623
69.802 41.7894 0.0307344
72.405 39.8022 0.0195999
75 37.5 0
72.4879 37.5122 2
70.0393 39.6572 2
69.428 43.9066 2
67.5805 41.4951 2
68.2631 48.1054 2
66.686 45.4347 2
70.1273 37.5216 3.96938
67.8207 39.5113 3.96839
67.2026 43.4664 3.96793
65.4766 41.2023 3.97249
66.0445 47.4122 3.96693
64.5652 44.834 3.97066
72.4128 35.2242 0.0195489
71.8034 30.6763 0.0199325
69.8379 33.2688 0.0305719
68.9636 29.0388 0.0308953
64.0165 10.9835 0
63.8886 14.3286 0.0193796
63.5094 17.4522 0.0291328
67.6086 24.9129 0.0308075
66.1776 27.6389 0.0330045
64.7441 23.8348 0.0333616
62.8992 20.3273 0.0339763
62.0499 22.9596 0.0331597
60.683 11.0989 0.0147728
57.6111 11.4535 0.0230661
70.056 35.3924 2
69.4648 31.1504 2
67.642 33.5931 2
66.7547 29.6269 2
62.3429 12.6597 2
62.1947 15.793 2
61.8042 18.6952 2
65.508 25.7043 2
64.0741 28.2706 2
61.1806 21.3596 2
62.8034 24.6539 2
60.3376 23.7571 2
59.2452 12.7859 2
56.4034 13.129 2
55.8743 10.2374 2
67.8593 35.5486 3.96837
67.2495 31.6254 3.96773
65.63 33.9331 3.97249
64.5894 30.2044 3.97093
63.4771 26.4297 3.96916
62.1311 28.8018 3.97414
60.7729 14.2305 3.97344
60.9445 25.3658 3.9712
60.6029 17.142 3.96588
60.1929 19.8357 3.96365
59.5785 22.2892 3.96602
58.8543 24.3593 3.97172
54.037 9.13971 3.98114
57.9064 14.3473 3.97379
54.7846 12.0226 3.97449
55.3069 14.6705 3.9718
67.5047 50.1755 0.0315523
57.025 66.7346 0.00922659
60.6677 63.9763 0.0136659
57.5565 63.6879 0.0209924
65.6988 54.1716 0.0307738
64.5221 51.3792 0.0341546
60.7704 60.932 0.0268032
60.6491 58.1474 0.036034
62.8135 55.0618 0.0336799
60.317 55.7721 0.034741
55.0717 67.9314 2
59.2171 62.3616 2
55.8038 64.9084 2
56.3233 62.0807 2
65.3103 49.4016 2
63.697 53.2866 2
62.3798 50.6332 2
59.3262 59.5467 2
61.0573 54.295 2
59.2714 56.9932 2
59.2235 55.1644 2
53.0429 68.9993 3.99171
53.9663 66.0113 3.985
57.8763 60.8578 3.97387
54.6825 63.2019 3.97785
55.2059 60.5975 3.97363
63.1198 48.6427 3.96842
61.6991 52.5584 3.96644
60.1576 49.988 3.9691
58.0041 58.2447 3.96524
59.2842 53.9246 3.96697
58.0848 55.7879 3.96122
50.1083 67.8556 3.9868
47.4624 66.5775 3.98351
46.0553 69.1563 3.98731
48.1016 68.5779 2
48.8028 70.7224 3.99192
50.9492 69.9311 2
51.8506 72.1454 4
54.0858 71.1327 2
56.25 69.9759 0
55.1028 7.14101 3.99012
58.3339 6.31992 4
57.0597 8.33751 2
60.3286 7.74926 2
58.9204 9.65688 0.0128984
62.2254 9.30607 0
68.2632 48.1061 0.0314889
69.4281 43.907 0.0308779
66.6865 45.4351 0.0324622
67.5805 41.4953 0.0316634
70.0393 39.6573 0.0306344
72.4884 37.512 0.0200102
70.1269 37.5217 2
67.8205 39.5112 2
67.2032 43.4661 2
65.4754 41.2021 2
66.0446 47.4118 2
64.5639 44.8336 2
67.9196 37.5221 3.96841
65.714 39.3663 3.97268
65.0953 43.0145 3.97199
63.6164 40.9172 3.97703
63.8796 46.6996 3.96944
62.6601 44.1936 3.97472
70.056 35.3922 0.0304884
69.4649 31.15 0.0307934
67.6419 33.5929 0.0319418
66.7546 29.6266 0.0326689
62.3406 12.6561 0.0163625
62.1952 15.7928 0.0288577
61.8049 18.6948 0.0338774
65.5081 25.7039 0.0332533
64.0753 28.2701 0.0299457
62.804 24.6534 0.0319016
61.1816 21.3591 0.0347393
60.3378 23.7563 0.0308188
59.2441 12.7861 0.0259516
56.4027 13.1308 0.0265294
55.8736 10.2387 0.0208467
67.8589 35.5487 2
67.25 31.6256 2
65.6289 33.9334 2
64.5883 30.2048 2
60.773 14.2313 2
60.6025 17.1421 2
60.194 19.8358 2
63.4763 26.4302 2
62.129 28.8024 2
59.5799 22.2898 2
60.9438 25.3665 2
58.8535 24.3604 2
57.9065 14.3463 2
55.3073 14.6698 2
54.0375 9.13822 2
54.7853 12.0203 2
65.8057 35.6696 3.97262
65.1096 32.1638 3.97146
64.1704 34.2581 3.97686
62.4471 30.6572 3.97514
61.5363 27.0988 3.97244
60.6843 29.1717 3.97729
59.3044 15.6827 3.96976
59.1815 25.8361 3.97457
59.1043 18.3767 3.96432
58.6764 20.8851 3.96295
58.1632 23.1342 3.96667
57.8228 24.7112 3.97377
52.1118 8.15613 3.98381
53.0567 11.0261 3.97647
56.6685 15.7639 3.97232
53.8054 13.7016 3.97424
54.3655 16.0268 3.97343
55.071 67.9315 0.00831469
65.3105 49.402 0.0337409
55.8039 64.9074 0.0166524
59.2168 62.3603 0.0256183
56.3239 62.0784 0.0250076
63.6972 53.2869 0.0343594
62.38 50.6335 0.0327793
59.3269 59.5454 0.0319575
59.271 56.9935 0.0362319
61.0568 54.2951 0.0341201
59.223 55.1648 0.0347696
53.0435 68.9993 2
53.9662 66.0122 2
57.8754 60.8592 2
54.6818 63.2027 2
55.2056 60.5993 2
63.119 48.6422 2
61.6999 52.5582 2
60.1574 49.9873 2
58.0034 58.246 2
59.2863 53.9243 2
58.0829 55.7868 2
52.0696 66.9984 3.98645
52.9526 64.2142 3.98153
56.6394 59.4729 3.97277
[...]
POINT_DATA 3012
SCALARS Jp_lamdaP float 4
LOOKUP_TABLE default
0.999852 1 1 0.999852
1 1 1 1
0.999857 1 1 0.999857
0.999809 1 1 0.999809
0.999851 1 1 0.999851
0.999847 1 1 0.999847
0.999315 1 1 0.999315
1 1 1 1
1 1 1 1
1 1 1 1
0.999925 1 1 0.999925
0.999474 1 1 0.999474
0.999773 1 1 0.999773
0.999801 1 1 0.999801
0.999857 1 1 0.999857
0.999825 1 1 0.999825
0.999851 1 1 0.999851
0.99986 1 1 0.99986
0.999318 1 1 0.999318
1 1 1 1
0.999789 1 1 0.999789
0.999834 1 1 0.999834
0.999186 1 1 0.999186
0.999284 1 1 0.999284
0.999866 1 1 0.999866
0.999348 1 1 0.999348
0.998878 1.00041 1 0.998467
1 1 1 1
0.999915 1 1 0.999915
0.999928 1 1 0.999928
1 1 1 1
0.999482 1 1 0.999482
0.999825 1 1 0.999825
0.999847 1 1 0.999847
0.999402 1 1 0.999402
1 1 1 1
0.999491 1 1 0.999491
0.999571 1 1 0.999571
0.998509 1 1 0.998509
1 1 1 1
1 1 1 1
0.999899 1 1 0.999899
1 1 1 1
0.999793 1 1 0.999793
0.999115 1 1 0.999115
1 1 1 1
0.999307 1 1 0.999307
0.999838 1 1 0.999838
0.999866 1 1 0.999866
0.999853 1 1 0.999853
0.999323 1 1 0.999323
0.999883 1 1 0.999883
0.999805 1 1 0.999805
0.999876 1 1 0.999876
0.999847 1 1 0.999847
0.999186 1 1 0.999186
0.999352 1 1 0.999352
0.999287 1 1 0.999287
0.999063 1.00061 1 0.998452
1 1 1 1
0.999778 1 1 0.999778
0.999283 1 1 0.999283
0.99915 1 1 0.99915
0.999236 1 1 0.999236
1.00073 1.00257 1 0.998169
0.999392 1.00109 1 0.998303
0.999922 1 1 0.999922
0.999463 1 1 0.999463
0.998633 1.00006 1 0.998572
1.00525 1.00754 1 0.997723
1 1 1 1
1 1 1 1
1 1 1 1
0.99949 1 1 0.99949
1 1 1 1
1 1 1 1
0.999319 1 1 0.999319
0.999982 1 1 0.999982
0.999427 1 1 0.999427
0.999626 1 1 0.999626
0.998506 1 1 0.998506
1 1 1 1
0.999947 1 1 0.999947
0.999259 1 1 0.999259
0.999356 1 1 0.999356
1.00047 1.00239 1 0.998087
0.999771 1 1 0.999771
0.998586 1.00018 1 0.998408
0.998644 1 1 0.998644
0.998427 1.00048 1 0.997953
1 1 1 1
1 1 1 1
1 1 1 1
1 1 1 1
1 1 1 1
0.999893 1 1 0.999893
0.999194 1 1 0.999194
0.999903 1 1 0.999903
0.999261 1 1 0.999261
1 1 1 1
0.999102 1 1 0.999102
0.99928 1 1 0.99928
1.00049 1.0027 1 0.997796
0.999343 1 1 0.999343
1.00182 1.00395 1 0.997881
0.999791 1 1 0.999791
0.999818 1 1 0.999818
0.999885 1 1 0.999885
0.999858 1 1 0.999858
0.999187 1 1 0.999187
0.999292 1 1 0.999292
0.999358 1 1 0.999358
0.999234 1.0008 1 0.998437
1 1 1 1
0.999793 1 1 0.999793
0.999127 1 1 0.999127
0.999149 1 1 0.999149
0.999961 1 1 0.999961
0.999517 1 1 0.999517
0.999238 1 1 0.999238
1.00071 1.00258 1 0.998129
0.998683 1.00013 1 0.998553
0.999576 1.00125 1 0.998331
1.00549 1.00778 1 0.997727
0.999124 1 1 0.999124
0.999128 1 1 0.999128
1.00011 1.00215 1 0.997962
1.00078 1.00273 1 0.998053
1.00039 1.0022 1 0.998185
1.01217 1.01469 1 0.99752
1 1 1 1
1.00731 1.00968 1 0.997653
0.999687 1 1 0.999687
0.998606 1 1 0.998606
1.00364 1.00586 1 0.997791
1.0157 1.01827 1 0.997482
0.999862 1 1 0.999862
0.999618 1 1.00046 0.999158
1 1 1 1
1 1 1 1
0.999326 1 1 0.999326
1 1 1 1
0.999624 1 1 0.999624
0.999432 1 1 0.999432
0.998502 1 1 0.998502
1 1 1 1
0.999961 1 1 0.999961
0.999318 1 1 0.999318
0.999411 1 1 0.999411
1.00008 1.00199 1 0.99809
0.999783 1 1 0.999783
0.998493 1.00008 1 0.998411
0.998643 1 1 0.998643
0.998428 1.00049 1 0.997937
0.999876 1 1 0.999876
0.999988 1 1 0.999988
0.999456 1 1.00011 0.999348
1.00146 1.00349 1 0.997976
0.999275 1.00103 1 0.99825
1.00869 1.01121 1 0.997517
0.998864 1 1 0.998864
1.00148 1.00364 1 0.997845
0.998891 1.00028 1.00057 0.998044
1.00133 1.00357 1 0.997773
1 1 1 1
1 1 1 1
1 1 1 1
0.999917 1 1 0.999917
1 1 1 1
1 1 1 1
1 1 1 1
0.999212 1 1 0.999212
0.99914 1 1 0.99914
1 1 1 1
1 1 1 1
0.999103 1 1 0.999103
0.999233 1 1 0.999233
1.00072 1.00293 1 0.997796
0.99924 1 1 0.99924
1.00186 1.00399 1 0.997881
0.999095 1 1 0.999095
0.999868 1.00213 1 0.997747
1.00123 1.00339 1 0.997848
1.01531 1.01804 1 0.997322
1.00189 1.00399 1 0.997914
1.01577 1.01842 1 0.997391
1 1 1 1
0.999808 1 1 0.999808
0.998958 1 1 0.998958
0.999148 1 1 0.999148
1 1 1 1
0.999572 1 1 0.999572
0.999242 1 1 0.999242
1.00068 1.0026 1 0.998089
0.999765 1.00141 1 0.99836
0.99874 1.00021 1 0.998535
1.00572 1.00801 1 0.997731
0.999121 1 1 0.999121
0.999126 1 1 0.999126
0.999977 1.00211 1 0.997869
1.00081 1.00273 1 0.998082
1 1 1 1
0.999685 1 1 0.999685
0.998658 1 1 0.998658
1.00035 1.00217 1 0.998184
1.01207 1.01462 1 0.997483
1.00362 1.00585 1 0.99778
1.0076 1.00994 1 0.997683
1.01523 1.01779 1 0.997489
0.999852 1 1 0.999852
0.999625 1 1.00047 0.999159
0.999576 1.00181 1 0.997768
1.00054 1.00254 1 0.998013
1.01324 1.01586 1 0.997419
1.01263 1.01526 1 0.997407
1.00952 1.01193 1 0.997614
1.0235 1.02616 1 0.997404
0.999787 1 1 0.999787
1.01759 1.02017 1 0.997472
0.998852 1 1.00008 0.998771
1.00005 1.00214 1 0.997919
1.0134 1.01592 1 0.997523
1.01889 1.02145 1 0.997499
0.999301 1 1.00029 0.99901
0.999389 1 1.00004 0.999348
1.00025 1 1.00164 0.998609
0.999279 1 1 0.999279
1 1 1 1
0.999976 1 1 0.999976
0.999384 1 1 0.999384
0.999667 1.00158 1 0.998092
0.999792 1 1 0.999792
0.998683 1 1.00004 0.998643
0.998418 1 1 0.998414
0.998469 1.00055 1 0.99792
0.999894 1 1 0.999894
0.999992 1 1 0.999992
0.999579 1 1.00023 0.999351
1.00119 1.00322 1 0.997976
0.998976 1.00072 1 0.998255
1.0085 1.01102 1 0.997515
0.998888 1 1.00002 0.998867
1.00097 1.00312 1 0.997856
0.998912 1.0004 1.00047 0.99804
1.00148 1.00373 1 0.997759
0.999999 1 1 0.999999
0.999218 1 1.00012 0.999097
0.999729 1 1.00014 0.999591
0.99964 1 1.00085 0.998796
1.01193 1.01453 1 0.997432
1.00542 1.00775 1 0.997686
1.01811 1.02084 1 0.997328
0.99874 1 1.00044 0.998299
1.0064 1.00876 1 0.997665
1.00307 1.00377 1.00158 0.997729
1.00891 1.01131 1 0.997627
0.999856 1 1 0.999856
1 1 1 1
1 1 1 1
1 1 1 1
1 1 1 1
0.999957 1 1 0.999957
1 1 1 1
0.999905 1 1 0.999905
1 1 1 1
0.999241 1 1 0.999241
0.99918 1 1 0.99918
1.00198 1.0041 1 0.99788
1.00094 1.00315 1 0.997796
0.999105 1 1 0.999105
1 1 1 1
0.999094 1 1 0.999094
1.00002 1.00228 1 0.997747
1.00144 1.0036 1 0.997848
1.0151 1.01783 1 0.997321
1.00183 1.00393 1 0.997913
1.01574 1.0184 1 0.99739
0.999503 1.00177 1 0.997739
1.01437 1.01714 1 0.997277
1.01591 1.01859 1 0.997364
1.02901 1.03174 1 0.997355
1.01477 1.01741 1 0.997405
1.02783 1.03054 1 0.997368
0.999118 1 1 0.999118
0.999124 1 1 0.999124
0.99985 1.00208 1 0.997777
1.00084 1.00273 1 0.99811
1 1 1 1
0.999682 1 1 0.999682
0.99871 1 1 0.99871
1.00032 1.00214 1 0.998183
1.01197 1.01456 1 0.997446
1.00788 1.01019 1 0.997714
1.00357 1.00581 1 0.997768
1.01486 1.01741 1 0.997495
0.999842 1 1 0.999842
0.999664 1 1.0005 0.99916
0.999527 1.00179 1 0.997742
1.00051 1.0025 1 0.99801
1.01346 1.01608 1 0.997417
1.01278 1.01538 1 0.997443
0.999776 1 1 0.999776
0.998776 1 1.00001 0.998768
1.00057 1.00262 1 0.997953
1.00975 1.01217 1 0.997611
1.02381 1.02647 1 0.997416
1.01272 1.01527 1 0.997489
1.01745 1.02002 1 0.997476
1.01924 1.0218 1 0.997499
0.999234 1 1.00022 0.999013
1.00023 1 1.00162 0.998611
0.999605 1 1.00026 0.999345
1.01343 1.01611 1 0.997365
1.01367 1.01626 1 0.997445
1.02726 1.03 1 0.997342
1.02562 1.02834 1 0.997362
1.01959 1.02218 1 0.997458
1.02528 1.02778 1 0.997565
0.998911 1 1 0.998911
1.02089 1.02341 1 0.997538
0.998622 1.00039 1 0.998232
1.0052 1.0077 1 0.99752
1.01648 1.01916 1 0.997363
1.01799 1.02039 1 0.997652
0.999511 1 1 0.999511
0.998677 1 1.0001 0.998579
1.00076 1 1.00206 0.998701
0.99953 1 1.0011 0.998436
1.00093 1.00296 1 0.997976
0.999997 1 1 0.999997
0.999913 1 1 0.999913
0.999585 1 1.00023 0.999353
0.998656 1.0004 1 0.99826
1.0083 1.01081 1 0.997512
0.998871 1 1 0.998871
0.998865 1.0005 1.00033 0.998036
1.00043 1.00257 1 0.997866
1.00146 1.00373 1 0.997744
1 1 1 1
0.999218 1 1.00012 0.999097
0.999648 1 1.00005 0.999598
0.999826 1 1.00104 0.998792
1.01176 1.01437 1 0.997429
1.00457 1.0069 1 0.997687
1.0181 1.02083 1 0.997326
0.998753 1 1.00045 0.998304
1.00644 1.00878 1 0.997679
1.00298 1.00354 1.00173 0.997718
1.00895 1.01128 1 0.997693
1 1 1 1
0.99974 1 1 0.99974
0.99889 1 1.00032 0.998575
0.999634 1 1.0006 0.999034
0.999749 1 1.00124 0.998516
1.02143 1.02419 1 0.997306
1.01246 1.01502 1 0.997477
1.01771 1.02042 1 0.997348
1.00107 1.00115 1.00199 0.997936
1.00944 1.01187 1 0.997597
1.00645 1.00816 1.00086 0.997447
0.999839 1 1 0.999839
0.999463 1 1 0.999463
0.999868 1 1 0.999868
0.999859 1 1 0.999859
1 1 1 1
1 1 1 1
1 1 1 1
1 1 1 1
1 1 1 1
0.999985 1 1 0.999985
1 1 1 1
0.999947 1 1 0.999947
1 1 1 1
0.999894 1 1 0.999894
1 1 1 1
1.00174 1.00384 1 0.997912
1.00159 1.00375 1 0.997847
1.01557 1.01823 1 0.997388
1.01487 1.0176 1 0.997319
1.00022 1.00248 1 0.997747
0.999093 1 1 0.999093
0.999606 1.00187 1 0.997739
1.01433 1.01709 1 0.997277
1.01558 1.01827 1 0.997363
1.02927 1.03199 1 0.997367
1.01438 1.01702 1 0.997403
1.02731 1.03002 1 0.997367
1.01387 1.01665 1 0.997267
1.02815 1.03089 1 0.997348
1.0293 1.03202 1 0.997367
1.03296 1.03569 0.999841 0.99752
1.02397 1.02669 1 0.997343
1.0284 1.03087 1 0.997598
0.999504 1.00179 1 0.997717
1.00048 1.00247 1 0.998007
1.01367 1.0163 1 0.997415
1.01292 1.01548 1 0.997479
0.999766 1 1 0.999766
0.998765 1 1 0.998765
1.00108 1.0031 1 0.997987
1.01 1.01243 1 0.997608
1.02414 1.02678 1 0.997427
1.01731 1.01988 1 0.997479
1.01195 1.01453 1 0.997455
1.01956 1.02212 1 0.997499
0.999171 1 1.00016 0.999016
1.00019 1 1.00158 0.998613
0.999787 1 1.00045 0.999342
1.01356 1.01627 1 0.997329
1.01377 1.01637 1 0.997443
1.02687 1.02959 1 0.997357
1.02588 1.02859 1 0.997363
0.998951 1 1.00004 0.99891
0.999053 1.00083 1 0.998225
1.0047 1.00711 1.00003 0.997571
1.01975 1.02235 1 0.997456
1.02478 1.02724 1 0.997601
1.0165 1.01922 1 0.997331
1.02092 1.02344 1 0.997541
1.01759 1.01996 1 0.997677
0.998779 1 1.0002 0.998581
0.999514 1 1.0011 0.998418
0.999507 1 1 0.999507
1.00073 1 1.00201 0.998727
1.02715 1.02991 1 0.997312
1.02776 1.03047 1 0.997373
1.02961 1.03225 0.999998 0.997443
1.02727 1.02994 0.999816 0.997588
1.02261 1.02508 1 0.997591
1.0238 1.02611 1 0.997752
0.998471 1 1 0.998471
1.01814 1.02039 1 0.997792
0.99895 1.00109 1 0.997859
1.00907 1.01164 1.00018 0.997283
1.01798 1.02073 1 0.997299
1.01673 1.01906 1 0.997713
0.999622 1 1 0.999622
0.999337 1 1.00045 0.998887
0.998398 1 1 0.998398
1.00098 1 1.0025 0.998479
0.998995 1 1.00061 0.998391
1 1 1 1
1.01154 1.01415 1 0.997425
0.999605 1 1 0.999605
0.999296 1 1.0002 0.999098
1.00011 1 1.00133 0.998787
1.00379 1.00612 1 0.997688
1.01816 1.0209 1 0.997324
0.998814 1 1.00051 0.998309
1.00319 1.00356 1.00193 0.997707
1.00658 1.00891 1 0.997693
1.0092 1.01147 1 0.99776
1 1 1 1
0.999747 1 1 0.999747
0.99891 1 1.00033 0.998576
0.999785 1 1.00075 0.999034
1.00014 1 1.00164 0.998494
1.02168 1.02445 1 0.9973
1.01275 1.01532 1 0.997477
1.01765 1.02037 1 0.997338
1.00082 1.00076 1.00213 0.99794
1.01185 1.01427 1 0.997607
1.00569 1.00727 1.00096 0.997466
0.999807 1 1 0.999807
0.999246 1 1 0.999246
0.99874 1 1.00048 0.998264
1.00081 1 1.00212 0.998699
0.999743 1 1.00136 0.99838
1.02153 1.02421 1 0.997389
1.01335 1.01594 1 0.997448
1.0157 1.01823 1 0.997516
1.00154 1.00005 1.00379 0.997707
1.00622 1.00891 1 0.997329
0.999842 1 1 0.999842
0.999396 1 1 0.999396
0.999441 1 1 0.999441
0.99923 1 1 0.99923
0.999472 1 1 0.999472
0.999872 1 1 0.999872
0.99987 1 1 0.99987
1 1 1 1
0.999861 1 1 0.999861
1 1 1 1
1 1 1 1
1 1 1 1
1 1 1 1
1 1 1 1
0.999998 1 1 0.999998
0.999978 1 1 0.999978
1 1 1 1
1 1 1 1
0.999937 1 1 0.999937
1 1 1 1
1.01407 1.01671 1 0.9974
1.0154 1.01809 1 0.997362
1.0269 1.02961 1 0.997366
1.02961 1.03231 1 0.997379
1.01423 1.017 1 0.997278
0.999659 1.00193 1 0.997738
1.01373 1.01651 1 0.997268
1.02812 1.03086 1 0.997342
1.02928 1.032 1 0.997367
1.03209 1.03504 0.999602 0.997548
1.02449 1.02722 1 0.997338
1.02856 1.03108 0.999937 0.997617
1.02724 1.03001 1 0.997316
1.03092 1.03429 0.999262 0.997484
1.03117 1.03374 0.999911 0.997609
1.03096 1.03473 0.998682 0.99767
1.02553 1.02808 1 0.997515
1.02864 1.03124 0.999685 0.997795
1.01365 1.0164 1 0.997294
1.01385 1.01645 1 0.997441
1.02645 1.02915 1 0.997372
1.02613 1.02884 1 0.997365
0.998926 1 1.00002 0.998909
0.999532 1.00132 1 0.998219
1.00439 1.00661 1.00018 0.997621
1.01991 1.02252 1 0.997453
1.02421 1.02663 1 0.997637
1.02096 1.02347 1 0.997544
1.01659 1.01934 1 0.997299
1.0171 1.01945 1 0.997702
0.998898 1 1.00031 0.998584
0.999468 1 1.00107 0.9984
0.999502 1 1 0.999502
1.00049 1 1.00174 0.998753
1.02699 1.02976 1 0.997312
1.02728 1.03 1 0.997358
1.02949 1.03214 0.999972 0.997466
1.0271 1.02967 0.999926 0.997572
0.998465 1 1 0.998465
0.999186 1.00125 1.00003 0.997905
1.00927 1.01163 1.00039 0.997275
1.0223 1.0248 1 0.99756
1.02366 1.02593 0.999984 0.997804
1.01722 1.01999 1 0.997286
1.01845 1.0207 1 0.997795
1.018 1.02029 1 0.997757
0.998396 1 1 0.998396
0.998695 1 1.0003 0.998395
1.00157 1 1.00311 0.998473
0.999589 1 1 0.999589
0.999261 1 1.00035 0.998912
1.02985 1.03343 0.99907 0.997466
1.03048 1.0333 0.999752 0.997517
1.0248 1.02819 0.998915 0.997786
1.021 1.02327 0.999946 0.997827
0.99824 1 1 0.99824
1.02137 1.02347 1 0.99795
0.999003 1.00109 1.00029 0.997627
1.00959 1.01206 1.00051 0.997052
1.01626 1.01904 1 0.99727
0.999661 1 1 0.999661
0.999125 1 1 0.999122
0.999914 1 1.00125 0.998665
0.998354 1 1 0.998354
1.00188 1 1.00359 0.998298
0.998328 1 1 0.998328
1 1 1 1
0.999753 1 1 0.999753
1.02196 1.02473 1 0.997295
0.999909 1 1.00088 0.999035
0.998857 1 1.00028 0.998578
1.00067 1 1.0022 0.998472
1.01287 1.01543 1 0.997476
1.01743 1.02015 1 0.997329
1.0005 1.00028 1.00229 0.997945
1.00443 1.00619 1.00077 0.997485
1.01403 1.01645 1 0.997618
0.999811 1 1 0.999811
0.99925 1 1 0.99925
0.998682 1 1.00041 0.99827
1.00124 1 1.00254 0.998696
0.999851 1 1.00148 0.998373
1.02145 1.02413 1 0.997383
1.01384 1.01644 1 0.997438
1.01552 1.01803 1 0.997541
1.00121 1.00029 1.00324 0.997676
1.00517 1.00783 1.00006 0.9973
0.999373 1 1 0.999373
1.00007 1 1.0012 0.998865
1.00014 1.00004 1.002 0.998105
1.00148 1 1.00305 0.998433
0.99926 1 1.001 0.998266
1.02214 1.0244 1 0.997789
1.01171 1.01439 1 0.997359
1.01251 1.01498 1 0.997566
1.00349 1.00166 1.00433 0.99751
1.00084 1.00374 1 0.997104
0.999844 1 1 0.999844
0.999413 1 1 0.999413
0.999142 1 1 0.999142
0.99942 1 1 0.99942
0.999471 1 1 0.999471
0.9992 1 1 0.9992
0.999056 1 1 0.999056
0.999172 1 1 0.999172
0.999475 1 1 0.999475
0.999869 1 1 0.999869
0.999872 1 1 0.999872
1 1 1 1
0.999871 1 1 0.999871
1 1 1 1
1 1 1 1
1 1 1 1
1 1 1 1
1 1 1 1
1 1 1 1
0.999995 1 1 0.999995
1 1 1 1
0.999971 1 1 0.999971
1 1 1 1
1 1 1 1
1.02495 1.02769 1 0.997332
1.02912 1.03184 1 0.997366
1.02871 1.03129 0.999858 0.997635
1.03117 1.03436 0.999336 0.997576
1.02808 1.03083 1 0.997335
1.01366 1.01643 1 0.997269
1.02751 1.03029 1 0.997299
1.03116 1.03436 0.999432 0.997476
1.03089 1.03344 0.999948 0.997589
1.03044 1.03448 0.998404 0.997684
1.02488 1.02744 1 0.997515
1.02787 1.0305 0.999612 0.997835
1.03047 1.03352 0.99959 0.99745
1.03097 1.03645 0.997044 0.997661
1.02977 1.03383 0.998284 0.997788
1.02587 1.02838 0.99967 0.997889
1.02687 1.02963 1 0.997312
1.02681 1.02955 1 0.997342
1.0294 1.03203 0.999964 0.997489
1.02697 1.02949 1 0.997555
0.998459 1 1 0.998459
0.999156 1.00121 1 0.997951
1.00937 1.01154 1.00058 0.997267
1.02194 1.02447 1 0.997529
1.02357 1.02579 0.999977 0.997856
1.01884 1.02109 1 0.997797
1.01655 1.01933 1 0.997274
1.01922 1.02146 1 0.9978
0.998394 1 1 0.998394
0.998398 1 1 0.998398
1.00268 1 1.00422 0.998467
0.999555 1 1 0.999555
0.999301 1 1.00037 0.998937
1.0303 1.03353 0.99941 0.997469
1.03068 1.03347 0.999776 0.997519
1.02469 1.02784 0.999158 0.997775
0.998467 1.00023 1 0.998234
1.00017 1.00225 1.00026 0.997671
1.00928 1.0115 1.00076 0.997041
1.02164 1.02393 0.99995 0.997816
1.01602 1.01872 1 0.997344
1.01984 1.02203 0.999931 0.997929
0.999674 1 1 0.999674
0.998394 1.00005 1 0.998347
0.9984 1 1 0.9984
1.00175 1 1.00347 0.998283
0.9999 1 1.00123 0.998676
0.999104 1 1.00001 0.999095
1.0306 1.03547 0.997745 0.997551
1.02845 1.03462 0.996331 0.997698
1.02158 1.02656 0.997264 0.997873
1.02589 1.0289 0.999064 0.998017
0.998659 1.00057 1 0.998087
1.01701 1.01943 1 0.997628
1.00207 1.00323 1.00165 0.997209
1.00601 1.00809 1.00104 0.996905
0.999775 1 1 0.999775
0.999272 1 1 0.999272
0.998852 1 1.00002 0.998835
1.00208 1 1.0037 0.998378
0.998254 1 1 0.998254
1.0003 1 1.00213 0.998177
0.999816 1 1 0.999816
0.999253 1 1 0.999253
1.02153 1.02422 1 0.997377
1.00128 1 1.00259 0.998693
0.998544 1 1.00027 0.998275
0.999845 1 1.00148 0.998367
1.0146 1.01722 1 0.997429
1.01557 1.01805 1 0.997566
1.001 1.00063 1.00273 0.997645
1.00421 1.00669 1.00027 0.99727
0.999375 1 1 0.999375
0.999699 1 1.00083 0.998873
1.00013 1.00003 1.00198 0.998122
1.00171 1 1.00327 0.998437
0.998809 1 1.00048 0.998334
1.0225 1.02475 0.999989 0.997822
1.0111 1.01377 1 0.997364
1.01394 1.01634 1 0.99764
1.00298 1.00093 1.00458 0.997476
1.00154 1.00446 1.00003 0.997056
0.999071 1 1 0.999071
1.0007 1 1.00216 0.998542
1.00198 1.00025 1.00378 0.997955
0.9997 1 1.00155 0.998149
1.02522 1.03292 0.994505 0.998034
1.01742 1.01969 0.999872 0.997899
1.00658 1.00945 1 0.997163
1.00333 1.00197 1.00426 0.997119
0.99943 1 1 0.99943
0.999155 1 1 0.999155
0.999014 1 1 0.999014
0.999471 1 1 0.999471
0.99917 1 1 0.99917
0.999475 1 1 0.999475
0.999039 1 1 0.999039
0.999185 1 1 0.999185
0.998945 1 1 0.998945
0.999004 1 1 0.999004
0.999156 1 1 0.999156
0.999463 1 1 0.999463
0.999862 1 1 0.999862
0.999868 1 1 0.999868
1 1 1 1
0.999872 1 1 0.999872
1 1 1 1
1 1 1 1
1 1 1 1
1 1 1 1
1 1 1 1
1 1 1 1
1 1 1 1
1 1 1 1
0.999993 1 1 0.999993
1 1 1 1
1 1 1 1
1.02417 1.02672 1 0.997514
1.03068 1.03319 1 0.997568
1.02712 1.02976 0.999557 0.997875
1.02994 1.03422 0.998157 0.997698
1.03141 1.03442 0.999624 0.997467
1.02778 1.03058 1 0.997283
1.03013 1.03348 0.999295 0.997454
1.03034 1.03563 0.997233 0.997652
1.02941 1.03357 0.998183 0.997787
1.02743 1.02988 0.999733 0.997893
1.03056 1.03606 0.997084 0.997602
1.03047 1.03836 0.994562 0.99783
1.0306 1.03577 0.99708 0.997926
1.03074 1.03362 0.999738 0.997472
1.03086 1.03361 0.999821 0.997521
1.02457 1.02743 0.999448 0.997764
0.998799 1.00057 1 0.998227
1.00138 1.00349 1.00018 0.997713
1.00869 1.01084 1.00085 0.99703
1.02225 1.02455 0.999951 0.997805
1.01843 1.02068 0.999887 0.997908
1.01606 1.01869 1 0.997418
0.998492 1.00015 1 0.998339
0.998473 1 1 0.998473
1.00148 1 1.00322 0.998268
0.999687 1 1 0.999687
0.999451 1 1.00077 0.998687
0.999069 1 1 0.999069
1.03137 1.03581 0.998155 0.997558
1.02885 1.03482 0.996514 0.997706
1.02184 1.02634 0.99775 0.997865
0.999051 1.00098 1 0.998076
1.0017 1.00301 1.0014 0.997295
1.00535 1.00752 1.0009 0.996946
1.0258 1.02855 0.999294 0.998026
1.01757 1.02006 0.999943 0.997615
0.999814 1 1 0.999814
0.999271 1 1 0.999271
0.998283 1 1 0.998283
1.0012 1 1.00295 0.998253
1.00199 1 1.00359 0.998398
0.998814 1 1 0.998812
1.02999 1.0374 0.995103 0.997748
1.02123 1.03163 0.992062 0.997837
1.02226 1.02806 0.996289 0.998061
1.01999 1.02353 0.998485 0.998052
0.999641 1.00092 1.00088 0.997839
1.0052 1.00677 1.0014 0.997047
1.00316 1.00351 1.00264 0.997013
0.999905 1 1 0.999905
0.999543 1 1 0.999543
0.999349 1 1 0.999349
0.998929 1 1 0.998929
0.999629 1 1.00107 0.998563
1.00179 1 1.00353 0.998271
0.998313 1 1 0.998313
1.01363 1 1.01525 0.998403
0.999377 1 1 0.999377
0.999557 1 1.00068 0.998881
1.02276 1.02498 0.999981 0.997856
1.00224 1 1.0038 0.998442
1.00029 1 1.00215 0.998138
0.998436 1 1.00004 0.998401
1.01023 1.01289 1 0.997369
1.01518 1.0175 1 0.997714
1.00267 1.00042 1.00482 0.997442
1.00239 1.0054 1 0.997009
0.999052 1 1 0.999052
1.00096 1 1.0024 0.998555
1.00229 1.00016 1.00415 0.99798
0.999531 1 1.00136 0.998178
1.02664 1.03388 0.994938 0.998047
1.01722 1.01945 0.999949 0.997862
1.0076 1.01043 1 0.997202
1.00336 1.00252 1.00377 0.997077
0.999115 1 1.00025 0.998866
1.02383 1.03529 0.990875 0.998044
1.00104 1 1.00274 0.998298
1.00107 1.00068 1.00268 0.997715
1.02406 1.02765 0.998368 0.998135
1.00779 1.01052 1 0.997291
1.0047 1.00454 1.00323 0.996937
0.999168 1 1 0.999168
0.99901 1 1 0.99901
0.998911 1 1 0.998911
0.999474 1 1 0.999474
0.999197 1 1 0.999197
0.999022 1 1 0.999022
0.999461 1 1 0.999461
0.999159 1 1 0.999159
0.998931 1 1 0.998931
0.999026 1 1 0.999026
0.998869 1 1 0.998869
0.9989 1 1 0.9989
0.998992 1 1 0.998992
0.999142 1 1 0.999142