# vtk DataFile Version 2.0
Wound Healing Simulation
ASCII
DATASET UNSTRUCTURED_GRID
POINTS 3012 float
69.9759 18.75 4
67.2507 60.3285 4
69.976 18.75 2
73.0099 25.446 4
71.1327 20.9142 4
68.6801 16.6661 4
67.8211 19.9262 3.97274
67.2507 60.3286 2
71.1327 54.0858 4
68.6801 58.3339 4
65.6939 62.2254 4
65.3079 58.9988 3.97136
74.6784 42.3946 4
73.7221 47.2057 4
69.9759 18.75 0
73.0099 25.446 2
68.6801 16.6661 2
71.1327 20.9142 2
67.8216 19.9299 2
74.6792 32.6053 4
73.7222 27.7943 4
72.1454 23.1494 4
70.6111 26.2217 3.97281
68.8816 21.9578 3.97296
67.2507 14.6715 4
66.6323 17.9733 3.97148
65.7428 21.0444 3.96183
67.2507 60.3285 0
71.1327 54.0858 2
68.6801 58.3339 2
65.694 62.2255 2
65.3093 58.9942 2
72.1454 51.8506 4
69.9759 56.25 4
68.8319 53.1143 3.97279
64.0165 64.0165 4
66.606 57.1329 3.97258
63.8804 60.7618 3.96782
63.4734 57.7568 3.96092
60.3285 67.2507 4
74.6792 42.3947 2
73.7222 47.2057 2
74.9194 39.9526 4
74.2788 44.8158 4
72.1658 42.0859 3.97443
73.0099 49.554 4
71.2462 46.5985 3.97283
73.0099 25.446 0
71.1327 20.9142 0
68.6801 16.6661 0
67.8211 19.9262 0.0272628
74.6792 32.6053 2
73.7222 27.7943 2
67.2508 14.6715 2
72.1455 23.1494 2
70.6104 26.2227 2
66.6333 17.9775 2
68.8816 21.9605 2
65.7418 21.0455 2
74.9197 35.0474 4
74.2794 30.1841 4
72.1825 32.945 3.97466
71.2755 28.4328 3.97294
69.812 24.0597 3.97294
68.3183 26.962 3.9642
66.713 22.9497 3.96267
65.694 12.7746 4
65.3191 16.1064 3.97028
64.6595 19.2161 3.96065
63.7187 22.1014 3.96446
71.1327 54.0858 0
65.6939 62.2254 0
68.6801 58.3339 0
65.3079 58.9988 0.028642
72.1455 51.8506 2
69.9759 56.25 2
68.8321 53.1112 2
64.0165 64.0165 2
66.6072 57.1281 2
63.8812 60.7567 2
63.4644 57.7549 2
62.2254 65.694 4
58.8904 65.4116 3.97934
69.7649 50.9902 3.9727
67.779 55.1679 3.97295
66.59 52.1937 3.96283
62.3313 62.4236 3.97346
64.611 56.0152 3.96171
62.1895 59.3863 3.96062
61.6914 56.6205 3.96043
58.3339 68.6801 4
60.3285 67.2508 2
73.7221 47.2057 0
74.6784 42.3946 0
74.9197 39.9526 2
74.2794 44.8159 2
72.1647 42.0853 2
73.0099 49.554 2
71.2454 46.5973 2
75 37.5 4
72.4031 39.8028 3.97542
71.7798 44.3532 3.97394
69.7924 41.7883 3.96611
70.5716 48.8145 3.97268
68.8841 46.0085 3.96555
74.6792 32.6053 0
73.7222 27.7943 0
67.2507 14.6715 0
72.1454 23.1494 0
70.6111 26.2217 0.0271905
68.8816 21.9578 0.0270406
66.6323 17.9733 0.0285156
65.7428 21.0444 0.0381657
74.9197 35.0474 2
74.2794 30.1841 2
72.1814 32.9448 2
71.2745 28.4333 2
65.694 12.7745 2
65.3198 16.111 2
69.8116 24.0614 2
68.3222 26.9625 2
64.6536 19.2177 2
66.7145 22.9507 2
63.7181 22.1021 2
72.411 35.2256 3.97553
71.8015 30.678 3.9741
69.8316 33.2737 3.96576
68.947 29.0464 3.96466
67.57 24.9257 3.9634
66.0166 27.6836 3.97152
64.0165 10.9835 4
64.58 23.8921 3.96686
63.8838 14.3323 3.96634
63.4774 17.4678 3.95865
62.7436 20.3914 3.96206
61.801 23.0586 3.97053
60.68 11.1032 3.97439
57.604 11.4843 3.96456
72.1454 51.8506 0
69.9759 56.25 0
68.8319 53.1143 0.0272094
64.0165 64.0165 0
63.8804 60.7618 0.0321762
66.606 57.1329 0.0274185
63.4734 57.7568 0.039083
62.2255 65.694 2
58.893 65.4064 2
69.7647 50.9879 2
67.7797 55.1637 2
66.591 52.1924 2
62.3331 62.4171 2
64.6056 56.0134 2
62.1851 59.3862 2
61.6886 56.6207 2
60.6649 63.9725 3.9767
57.021 66.732 3.98129
57.5494 63.6642 3.97161
67.4526 50.1633 3.96364
65.6452 54.1571 3.96212
64.3355 51.3233 3.96738
60.7654 60.9125 3.96627
62.6617 55.0061 3.96338
60.5562 58.0996 3.95701
60.1084 55.6856 3.96569
56.25 69.9759 4
58.3339 68.6801 2
60.3285 67.2507 0
58.9175 9.66008 3.97666
62.2254 9.30607 4
73.0099 49.554 0
74.2788 44.8158 0
71.2462 46.5985 0.0271684
72.1658 42.0859 0.0255726
74.9194 39.9526 0
75 37.5 2
72.4026 39.8025 2
71.7792 44.3522 2
69.7942 41.788 2
70.5712 48.8129 2
68.8885 46.008 2
72.4865 37.513 3.97521
70.0337 39.6578 3.96632
69.4146 43.9042 3.96586
67.4454 41.4828 3.97572
68.2226 48.0971 3.96477
66.5262 45.4033 3.97467
74.9197 35.0474 0
74.2794 30.1841 0
72.1825 32.945 0.0253382
71.2755 28.4328 0.0270617
65.694 12.7746 0
65.3191 16.1064 0.0297243
69.812 24.0597 0.027056
68.3183 26.962 0.0357978
66.713 22.9497 0.0373342
64.6595 19.2161 0.0393477
63.7187 22.1014 0.0355373
72.4106 35.2251 2
71.8008 30.6783 2
69.8324 33.2739 2
68.9514 29.0468 2
64.0165 10.9835 2
63.8848 14.3379 2
63.4729 17.4678 2
67.5729 24.9265 2
66.0144 27.6849 2
62.7454 20.3912 2
64.5785 23.8931 2
61.7985 23.0591 2
60.6822 11.1083 2
57.603 11.4764 2
70.0512 35.3957 3.96625
69.4542 31.1561 3.96489
67.5165 33.6102 3.97502
66.6109 29.6616 3.9739
65.3415 25.7562 3.96907
63.8106 28.3472 3.97569
62.3364 12.6601 3.97194
62.5473 24.7459 3.97338
62.1827 15.8073 3.96015
61.6609 18.7601 3.95934
60.9405 21.4639 3.9667
60.0232 23.889 3.97376
59.2372 12.8183 3.96279
55.8667 10.2687 3.9735
56.3902 13.187 3.96498
69.7649 50.9902 0.0273022
62.2254 65.694 0
58.8904 65.4116 0.0206583
67.779 55.1679 0.0270527
66.59 52.1937 0.0371714
62.3313 62.4236 0.0265384
62.1895 59.3863 0.0393766
64.611 56.0152 0.0382927
61.6914 56.6205 0.0395668
60.6676 63.9687 2
57.0242 66.7277 2
57.5505 63.6694 2
67.4545 50.1623 2
65.6435 54.1556 2
64.3334 51.3224 2
60.7616 60.9132 2
62.6617 55.0064 2
60.5502 58.0996 2
60.1078 55.686 2
55.067 67.93 3.98463
59.2116 62.3291 3.96606
55.7944 64.8775 3.97189
56.3156 62.0346 3.97855
65.1198 49.351 3.96943
63.5187 53.2284 3.96519
62.0848 50.5424 3.97202
59.2794 59.504 3.95714
60.8075 54.2037 3.96869
59.0706 56.9035 3.96032
58.9467 55.0549 3.96929
48.0988 68.5704 3.98084
50.9449 69.9306 3.98758
54.0858 71.1327 4
56.25 69.976 2
58.3339 68.6801 0
57.0541 8.33976 3.97701
60.3285 7.74928 4
58.9199 9.66586 2
62.2255 9.30602 2
70.5716 48.8145 0.0273205
71.7798 44.3532 0.026065
68.8841 46.0085 0.0344493
69.7924 41.7883 0.0338912
72.4031 39.8028 0.0245832
75 37.5 0
72.4856 37.5126 2
70.0341 39.6577 2
69.4164 43.9037 2
67.442 41.482 2
68.2245 48.0961 2
66.5228 45.402 2
70.122 37.5237 3.96644
67.6932 39.5069 3.97551
67.0568 43.4446 3.97538
65.2302 41.1818 3.97674
65.8633 47.37 3.97193
64.2913 44.7791 3.97574
72.411 35.2256 0.0244687
71.8015 30.678 0.0259041
69.8316 33.2737 0.034241
68.947 29.0464 0.03534
64.0165 10.9835 0
63.8838 14.3323 0.0336604
63.4774 17.4678 0.0413488
67.57 24.9257 0.0366046
66.0166 27.6836 0.0284797
64.58 23.8921 0.0331377
62.7436 20.3914 0.037938
61.801 23.0586 0.0294699
60.68 11.1032 0.0256092
57.604 11.4843 0.0354371
70.0508 35.3958 2
69.4567 31.1564 2
67.5142 33.6107 2
66.6091 29.6627 2
62.3382 12.6662 2
62.1795 15.8069 2
61.6639 18.7594 2
65.3395 25.7574 2
63.8085 28.3478 2
60.9385 21.4639 2
62.5454 24.7465 2
60.0226 23.8891 2
59.2356 12.8163 2
56.3893 13.1828 2
55.8669 10.2763 2
67.7369 35.5585 3.97514
67.1209 31.6509 3.97479
65.3912 33.9611 3.97675
64.3256 30.2672 3.97553
63.2158 26.5152 3.97523
61.7882 28.9017 3.97534
60.765 14.2533 3.96308
60.6128 25.4955 3.97506
60.5137 17.1969 3.95652
59.9477 19.9482 3.96221
59.2682 22.4291 3.96966
58.4847 24.5237 3.9742
54.0301 9.167 3.9692
57.8835 14.3954 3.95806
54.776 12.078 3.9692
55.2759 14.7466 3.95636
67.4526 50.1633 0.036359
57.021 66.732 0.0187139
60.6649 63.9725 0.0233009
57.5494 63.6642 0.0283887
65.6452 54.1571 0.0378815
64.3355 51.3233 0.0326183
60.7654 60.9125 0.033732
60.5562 58.0996 0.0429902
62.6617 55.0061 0.0366223
60.1084 55.6856 0.0343051
55.0707 67.9267 2
59.2101 62.3328 2
55.7964 64.8771 2
56.3139 62.0357 2
65.1172 49.3499 2
63.5173 53.2281 2
62.0834 50.5419 2
59.2914 59.5115 2
60.8077 54.204 2
59.0796 56.9064 2
58.9549 55.0569 2
53.0387 68.9978 3.9852
53.9603 65.9998 3.97244
57.8552 60.8191 3.96217
54.6621 63.1431 3.96649
55.1845 60.5512 3.97562
62.8239 48.5591 3.97441
61.4245 52.4655 3.97039
59.7738 49.8616 3.9731
57.8669 58.1689 3.95745
58.9756 53.8079 3.97152
57.7832 55.6627 3.96279
50.1046 67.8476 3.97831
47.4576 66.5647 3.97575
46.0531 69.1512 3.98323
48.1008 68.5699 2
48.7989 70.7219 3.98879
50.9479 69.9287 2
51.8506 72.1454 4
54.0858 71.1327 2
56.25 69.9759 0
55.0988 7.14388 3.98222
58.3339 6.31992 4
57.0578 8.34616 2
60.3286 7.74926 2
58.9175 9.66008 0.0233435
62.2254 9.30607 0
68.2226 48.0971 0.0352328
69.4146 43.9042 0.0341426
66.5262 45.4033 0.0253343
67.4454 41.4828 0.0242786
70.0337 39.6578 0.0336834
72.4865 37.513 0.0247925
70.1218 37.5237 2
67.6897 39.5065 2
67.0544 43.4436 2
65.228 41.1811 2
65.8607 47.3688 2
64.2889 44.7784 2
67.7964 37.525 3.97531
65.4729 39.358 3.97684
64.8358 42.9758 3.97654
63.302 40.8887 3.97671
63.5911 46.6266 3.97527
62.3021 44.1266 3.97581
70.0512 35.3957 0.0337454
69.4542 31.1561 0.0351148
67.5165 33.6102 0.0249833
66.6109 29.6616 0.0261002
62.3364 12.6601 0.0280564
62.1827 15.8073 0.0398488
61.6609 18.7601 0.0406557
65.3415 25.7562 0.0309259
63.8106 28.3472 0.024307
62.5473 24.7459 0.0266242
60.9405 21.4639 0.0333044
60.0232 23.889 0.0262352
59.2372 12.8183 0.0372092
56.3902 13.187 0.0350198
55.8667 10.2687 0.0265039
67.7337 35.5587 2
67.1194 31.6517 2
65.3886 33.9618 2
64.3237 30.2681 2
60.7619 14.2529 2
60.5053 17.1986 2
59.9431 19.9484 2
63.2143 26.5158 2
61.7877 28.9018 2
59.2716 22.4283 2
60.6119 25.4958 2
58.4824 24.5257 2
57.8857 14.3939 2
55.271 14.7376 2
54.0334 9.16268 2
54.7695 12.0853 2
65.573 35.6858 3.97673
64.856 32.2064 3.97621
63.8792 34.2908 3.97653
62.1066 30.7336 3.97568
61.1951 27.2155 3.97516
60.2809 29.2882 3.97578
59.2507 15.7344 3.95593
58.7899 25.9994 3.97551
58.9126 18.4807 3.95904
58.3642 21.0326 3.96402
57.8073 23.3028 3.9705
57.4283 24.8941 3.9757
52.1074 8.16542 3.97106
53.0404 11.0854 3.96573
56.6189 15.8404 3.95591
53.7927 13.7683 3.97745
54.2963 16.1246 3.9578
55.067 67.93 0.0153708
65.1198 49.351 0.0305704
55.7944 64.8775 0.0281119
59.2116 62.3291 0.0339407
56.3156 62.0346 0.0214547
63.5187 53.2284 0.03481
62.0848 50.5424 0.0279794
59.2794 59.504 0.0428629
59.0706 56.9035 0.0396774
60.8075 54.2037 0.0313089
58.9467 55.0549 0.0307117
53.0423 68.9958 2
53.9622 65.998 2
57.8568 60.8218 2
54.661 63.1444 2
55.1828 60.5518 2
62.8223 48.5584 2
61.4241 52.4654 2
59.7748 49.8613 2
57.8722 58.1722 2
58.9809 53.8088 2
57.7807 55.6616 2
52.0645 66.9868 3.97558
52.938 64.1774 3.97324
56.5775 59.4159 3.95684
53.6417 61.5329 3.97079
[...]
POINT_DATA 3012
SCALARS Jp_lamdaP float 4
LOOKUP_TABLE default
0.999499 1 1 0.999499
1 1 1 1
0.999515 1 1 0.999515
0.999441 1 1 0.999441
0.999501 1 1 0.999501
0.999471 1 1 0.999471
1.0081 1.00966 1 0.998454
1 1 1 1
1 1 1 1
1 1 1 1
0.999557 1 1 0.999557
1.00404 1.00557 1 0.998483
0.999475 1 1 0.999475
0.999463 1 1 0.999463
0.99952 1 1 0.99952
0.999476 1 1 0.999476
0.999481 1 1 0.999481
0.999526 1 1 0.999526
1.00808 1.00965 1 0.998452
1 1 1 1
0.999428 1 1 0.999428
0.999475 1 1 0.999475
1.00282 1.00448 1 0.998351
1.00712 1.0087 1 0.998442
0.99946 1 1 0.99946
1.00747 1.00903 1 0.998446
1.03281 1.03603 1 0.996899
1 1 1 1
0.999748 1 1 0.999748
0.99976 1 1 0.99976
1 1 1 1
1.00273 1.00424 1 0.998493
0.999486 1 1 0.999486
0.999516 1 1 0.999516
1.00858 1.00994 1 0.998652
1 1 1 1
1.00753 1.00882 1 0.99872
1.00009 1.00153 1 0.998564
1.02113 1.02438 1 0.99683
1 1 1 1
1 1 1 1
0.999734 1 1 0.999734
1 1 1 1
0.999481 1 1 0.999481
0.998741 1.00046 1 0.998279
1 1 1 1
1.00173 1.00318 1 0.998562
0.999507 1 1 0.999507
0.999544 1 1 0.999544
0.999483 1 1 0.999483
1.0081 1.00966 1 0.998456
0.999719 1 1 0.999719
0.99946 1 1 0.99946
0.999474 1 1 0.999474
0.999507 1 1 0.999507
1.00255 1.00422 1 0.998344
1.0075 1.00907 1 0.998447
1.00697 1.00854 1 0.99844
1.03309 1.03631 1 0.996888
1 1 1 1
0.999443 1 1 0.999443
0.99887 1.00023 1 0.998639
1.00077 1.00244 1 0.998334
1.0054 1.00701 1 0.998398
1.03427 1.03768 1 0.996706
1.03355 1.03688 1 0.996794
0.999505 1 1 0.999505
1.00162 1.00311 1 0.998514
1.03116 1.03431 1 0.996953
1.05315 1.05735 1 0.996032
1 1 1 1
1 1 1 1
1 1 1 1
1.00179 1.00329 1 0.998502
1 1 1 1
1 1 1 1
1.00844 1.01006 1 0.998389
0.999827 1 1 0.999827
1.0064 1.00793 1 0.998476
1.00003 1.00121 1.00009 0.998746
1.02215 1.0254 1 0.996826
1 1 1 1
1.00202 1 1.00251 0.999512
1.00686 1.00857 1 0.998302
1.0085 1.0101 1 0.998416
1.03926 1.04295 1 0.996459
0.999682 1 1.00059 0.999092
1.02904 1.03241 1 0.996742
1.01592 1.01894 1.00004 0.996997
1.04022 1.04433 1 0.996062
1 1 1 1
1 1 1 1
1 1 1 1
1 1 1 1
1 1 1 1
0.999741 1 1 0.999741
0.999197 1.00075 1 0.998447
0.999732 1 1 0.999732
1.00252 1.0041 1 0.998427
1 1 1 1
0.998412 1.00009 1 0.998318
0.999972 1.0014 1 0.998574
1.02854 1.03226 1 0.996399
1.00467 1.00609 1 0.998593
1.03633 1.04008 1 0.99639
0.9995 1 1 0.9995
0.999488 1 1 0.999488
0.999484 1 1 0.999484
0.999535 1 1 0.999535
1.00229 1.00396 1 0.998338
1.00682 1.0084 1 0.998441
1.00743 1.00899 1 0.998451
1.03348 1.03671 1 0.996878
1 1 1 1
0.999472 1 1 0.999472
0.998572 1.00022 1 0.998357
1.00046 1.00214 1 0.998324
0.999756 1 1 0.999756
1.00269 1.00408 1 0.998609
1.00515 1.00677 1 0.998394
1.03421 1.03765 1 0.996685
1.0305 1.03366 1 0.996941
1.03424 1.03755 1 0.996811
1.05292 1.0571 1 0.996041
0.998451 1.00011 1 0.998342
0.999527 1.00118 1 0.99835
1.02587 1.02926 1 0.996709
1.03075 1.03419 1 0.996673
1.03524 1.03865 1 0.996724
1.06702 1.07117 1 0.99613
1 1 1 1
1.05697 1.06114 1 0.996067
0.999616 1.00051 1.00045 0.998655
1.02143 1.02463 1 0.996869
1.0497 1.05392 1 0.995995
1.05721 1.06138 1 0.99607
1.00184 1 1.00273 0.999111
1.00671 1 1.00892 0.997802
1 1 1 1
1 1 1 1
1.00849 1.01012 1 0.998393
1 1 1 1
0.999661 1.00065 1.00035 0.998655
1.00552 1.00705 1 0.998484
1.0225 1.02576 1 0.996822
1 1 1 1
1.0021 1 1.00256 0.999537
1.00752 1.00908 1 0.998462
1.00841 1.00986 1 0.998563
1.03841 1.0421 1 0.996457
1.00001 1.00001 1.00104 0.998965
1.02916 1.03252 1 0.996743
1.0138 1.01677 1.00009 0.996994
1.04099 1.04511 1 0.996064
1.00141 1 1.00217 0.999242
1.00218 1 1.00247 0.999711
1.00589 1.00056 1.00716 0.998175
1.04085 1.04463 1 0.996383
1.0359 1.03944 1 0.996597
1.06137 1.06568 1 0.995959
1.0089 1.01057 1.00102 0.997325
1.04799 1.05208 1 0.996112
1.02921 1.03263 1.00057 0.996116
1.04747 1.05169 1 0.995985
1 1 1 1
1 1 1 1
1 1 1 1
1.00209 1 1.00278 0.999307
1 1 1 1
1 1 1 1
1 1 1 1
1.00311 1.00483 1 0.998296
0.999268 1.00095 1 0.998318
1 1 1 1
1 1 1 1
0.99851 1.00019 1 0.998318
1.00028 1.00184 1 0.998441
1.02881 1.03253 1 0.9964
1.00512 1.00684 1 0.998298
1.03561 1.03936 1 0.996388
0.998335 1.00001 1 0.998322
1.02625 1.02998 1 0.996381
1.03175 1.03547 1 0.996409
1.06971 1.07453 0.999291 0.996219
1.03968 1.04347 1 0.996369
1.07264 1.07703 0.999766 0.996158
1 1 1 1
0.999502 1 1 0.999502
0.998174 1.00013 1 0.998042
1.00017 1.00186 1 0.998315
1 1 1 1
1.00404 1.00534 1 0.998707
1.00491 1.00652 1 0.998393
1.03413 1.03759 1 0.996664
1.03506 1.03835 1 0.996828
1.02969 1.03286 1 0.996929
1.05252 1.05669 1 0.996051
0.998367 1.00003 1 0.99834
0.99931 1.00097 1 0.99834
1.02599 1.02953 1 0.996564
1.03113 1.03456 1 0.996678
1 1 1 1
1.00043 1.00145 1.00023 0.998754
1.02224 1.02534 1 0.99697
1.03569 1.0391 1 0.996716
1.06724 1.07141 0.99996 0.996144
1.04986 1.05408 1 0.995993
1.05702 1.06116 1 0.996097
1.05679 1.06095 1 0.996079
1.00155 1 1.00246 0.999098
1.0058 1.00028 1.00774 0.997802
1.02512 1.02882 1 0.996403
1.02677 1.03017 1 0.9967
1.06748 1.07198 0.999573 0.996228
1.06679 1.07213 0.998833 0.996179
1.06207 1.06621 0.999948 0.996169
1.06591 1.07264 0.997334 0.996382
1.00045 1 1.00157 0.998883
1.05964 1.06379 0.999859 0.996237
1.01241 1.01527 1.00011 0.997076
1.04421 1.04841 1 0.995997
1.0557 1.06004 1 0.995904
1.05628 1.06027 0.999843 0.996386
1.00407 1.00153 1.00506 0.997493
1.00664 1 1.0085 0.998162
1.00585 1.00304 1.00577 0.997058
1.00788 1.00956 1 0.998337
1 1 1 1
1.00191 1 1.00235 0.999561
1.00801 1.00958 1 0.998453
1.03772 1.04141 1 0.996455
1.00023 1 1.00127 0.998961
1.0128 1.01581 1.00004 0.996991
1.02909 1.03245 1 0.996744
1.0426 1.04672 1 0.996066
1.00152 1 1.00226 0.999265
1.00174 1 1.00201 0.99973
1.00615 1.00013 1.00785 0.998174
1.03983 1.0436 1 0.996379
1.03511 1.03864 1 0.996599
1.06157 1.06588 1 0.995952
1.0066 1.00855 1.00074 0.997329
1.04861 1.0527 1 0.996109
1.03313 1.03668 1.00047 0.996106
1.0488 1.05302 1 0.995996
1.00142 1 1.00159 0.999829
1.00518 1.0035 1.00397 0.997715
1.00689 1 1.00828 0.998626
1.00851 1.00439 1.00662 0.9975
1.06587 1.07017 1 0.995986
1.0553 1.05952 1 0.99602
1.06267 1.06689 1 0.996041
1.0193 1.02242 1.00049 0.996469
1.04967 1.05373 1 0.996148
1.04477 1.04747 1.00158 0.995857
1.05888 1.06314 1 0.995993
1.00002 1 1.00057 0.999447
0.999935 1 1 0.999935
1 1 1 1
1 1 1 1
1 1 1 1
1.0023 1 1.0028 0.999501
1 1 1 1
1.00239 1 1.0031 0.999289
1 1 1 1
1.00597 1.00769 1 0.998299
1.0007 1.00239 1 0.99831
1.03533 1.03908 1 0.996387
1.02924 1.03296 1 0.9964
0.998674 1.00035 1 0.99832
1 1 1 1
0.998365 1.00004 1 0.998321
1.02664 1.03037 1 0.996381
1.03198 1.0357 1 0.996408
1.06924 1.074 0.999349 0.996218
1.039 1.04279 1 0.996364
1.07217 1.07651 0.999814 0.996156
1.02515 1.02887 1 0.996383
1.06815 1.07281 0.999459 0.9962
1.0716 1.07635 0.999372 0.996209
1.06805 1.07759 0.994543 0.996581
1.07086 1.0751 0.999983 0.996072
1.06869 1.07784 0.995025 0.996462
0.998377 1.00004 1 0.998338
0.999091 1.00076 1 0.998329
1.02618 1.02987 1 0.99642
1.03147 1.03491 1 0.996684
1 1 1 1
1.00099 1.0021 1.00004 0.998857
1.02274 1.02575 1 0.99707
1.03612 1.03954 1 0.996708
1.06744 1.07165 0.999912 0.996159
1.05691 1.06102 1 0.996128
1.05041 1.05464 1 0.995992
1.0565 1.06065 1 0.996089
1.00141 1 1.00233 0.999085
1.00605 1.00082 1.00744 0.997802
1.02514 1.02884 1 0.996401
1.02728 1.03069 1 0.996694
1.06691 1.07178 0.9992 0.996257
1.06809 1.0729 0.999356 0.996161
1.00006 1.00002 1.00117 0.998873
1.0136 1.01641 1.00017 0.997076
1.04422 1.04839 1 0.996019
1.06188 1.06603 0.99997 0.996141
1.06507 1.0723 0.996813 0.996436
1.05511 1.05945 1 0.995901
1.05984 1.06403 0.999813 0.996241
1.05636 1.06037 0.999841 0.996375
1.00503 1.0027 1.00483 0.997492
1.00702 1.00364 1.00633 0.997055
1.0078 1.00002 1.00963 0.998163
1.06681 1.07127 0.999625 0.996211
1.06796 1.07313 0.998928 0.996254
1.06852 1.0767 0.995887 0.996506
1.06668 1.07593 0.994918 0.996459
1.0613 1.06691 0.998359 0.99638
1.05708 1.06962 0.991497 0.996744
1.00397 1.00596 1.00073 0.997293
1.05669 1.06351 0.997015 0.996563
1.03168 1.03558 1 0.996233
1.04755 1.0521 1 0.995678
1.05194 1.0562 1 0.995974
1.04897 1.05445 0.99813 0.996661
1.00884 1 1.01039 0.998466
1.00632 1.00843 1.00107 0.996842
1.00937 1.00091 1.01118 0.997308
1.0071 1.00739 1.00302 0.996705
1.03887 1.04265 1 0.996375
1.00134 1 1.00159 0.999748
1.0018 1 1.00251 0.99929
1.00737 1.00004 1.00917 0.998174
1.03443 1.03796 1 0.9966
1.06166 1.06599 1 0.995946
1.00315 1.00532 1.00051 0.997334
1.03456 1.03828 1.00033 0.996095
1.0494 1.0535 1 0.996106
1.04853 1.05273 1 0.996007
1.00079 1 1.00095 0.999843
1.0048 1.00228 1.00481 0.997721
1.00721 1.00002 1.00857 0.998632
1.00772 1.00327 1.00695 0.997496
1.06592 1.07023 1 0.995979
1.05553 1.05975 1 0.996017
1.06214 1.06637 1 0.996038
1.01701 1.02015 1.00045 0.996474
1.04916 1.05323 1 0.996131
1.04182 1.04436 1.00173 0.995844
1.05821 1.06237 1 0.996086
0.999897 1 1 0.999897
1.00459 1 1.00563 0.998971
1.00937 1.01045 1.00191 0.997023
1.01088 1.0019 1.0111 0.99788
1.00661 1.00616 1.00321 0.997254
1.0667 1.07142 0.999438 0.996157
1.05579 1.05997 1 0.996054
1.05657 1.06132 0.999298 0.996227
1.02042 1.0224 1.00199 0.996078
1.05031 1.05432 1 0.996204
1.03489 1.03846 1.00086 0.99571
0.999846 1 1.00049 0.999354
1.00121 1 1.00245 0.998763
0.999527 1 1 0.999527
0.999602 1 1.00015 0.999449
0.999959 1 1 0.999959
0.999941 1 1 0.999941
1 1 1 1
1 1 1 1
1 1 1 1
1.00134 1 1.00164 0.999706
1 1 1 1
1.00235 1 1.00287 0.999484
1 1 1 1
1.00207 1 1.0028 0.999271
1 1 1 1
1.03811 1.04191 1 0.996359
1.03194 1.03566 1 0.996408
1.07135 1.07564 0.999855 0.996153
1.06865 1.07334 0.999409 0.996217
1.02696 1.03069 1 0.996382
0.998372 1.00005 1 0.99832
1.02535 1.02907 1 0.996383
1.06773 1.07235 0.999488 0.9962
1.07094 1.07562 0.999442 0.996207
1.06767 1.07781 0.993974 0.996598
1.07001 1.07424 0.999987 0.996067
1.06916 1.07822 0.995117 0.996461
1.06696 1.07153 0.999542 0.996189
1.0674 1.07712 0.994348 0.996605
1.06857 1.07841 0.994316 0.996545
1.06226 1.07466 0.991618 0.99681
1.06702 1.07408 0.997093 0.996326
1.06173 1.07775 0.988292 0.996801
1.02507 1.02877 1 0.9964
1.02781 1.03122 1 0.996688
1.06638 1.0716 0.998841 0.996286
1.06942 1.0737 0.999872 0.996144
0.999727 1.00007 1.00079 0.998863
1.01577 1.0186 1.00015 0.997077
1.04527 1.04942 1 0.996041
1.06168 1.06582 1 0.996114
1.06426 1.07198 0.9963 0.99649
1.06006 1.0643 0.999769 0.996245
1.05427 1.05861 1 0.995899
1.05641 1.06043 0.999848 0.996365
1.00594 1.00408 1.00438 0.99749
1.00628 1.00296 1.00629 0.997052
1.00796 1 1.00982 0.998164
1.06662 1.0711 0.999608 0.996206
1.06753 1.07294 0.998705 0.996252
1.06799 1.07682 0.995228 0.996553
1.06671 1.07542 0.995449 0.996433
1.00704 1.0088 1.00096 0.997292
1.0311 1.035 1 0.996233
1.04666 1.05114 1.00003 0.995704
1.06189 1.06709 0.998784 0.996332
1.05651 1.06989 0.99067 0.996791
1.05299 1.05729 1 0.995934
1.05683 1.06361 0.997051 0.996564
1.05007 1.05534 0.998296 0.996699
1.0072 1.00885 1.00153 0.996841
1.00656 1.00633 1.00358 0.996657
1.00766 1 1.00921 0.998465
1.0085 1.00056 1.01061 0.997351
1.0678 1.07646 0.995387 0.996555
1.06996 1.07893 0.995188 0.996484
1.05735 1.0704 0.991057 0.996727
1.05541 1.07192 0.987735 0.99682
1.05631 1.06712 0.993137 0.996716
1.05631 1.07271 0.987712 0.996963
1.0151 1.01862 1 0.996544
1.04831 1.05983 0.992182 0.996932
1.03353 1.03785 1 0.995835
1.04328 1.04778 1.00018 0.995534
1.05096 1.05519 1 0.995993
1.0531 1.05874 0.997939 0.996726
1.00434 1 1.0056 0.998748
1.01263 1.00122 1.01385 0.997573
1.01101 1.0146 1 0.996462
1.00848 1.00463 1.00686 0.996999
1.00928 1.00653 1.00627 0.996496
1.00026 1 1.0004 0.999856
1.06593 1.07024 1 0.995972
1.00726 1.00009 1.00853 0.998638
1.00443 1.00118 1.00553 0.997727
1.00663 1.00206 1.00709 0.997493
1.05572 1.05995 1 0.996014
1.06166 1.06588 1 0.996035
1.01763 1.02071 1.00051 0.996478
1.0416 1.04395 1.00193 0.99583
1.04877 1.05286 1 0.996115
1.05838 1.06244 1 0.99618
0.999906 1 1 0.999906
1.00467 1 1.00569 0.998981
1.00711 1.00873 1.00137 0.997031
1.01179 1.00173 1.0122 0.997874
1.00652 1.0057 1.00363 0.997198
1.06654 1.0712 0.999494 0.996152
1.0555 1.05968 1 0.996052
1.05622 1.06102 0.999257 0.996216
1.0215 1.02335 1.00213 0.996077
1.05372 1.05775 1 0.996185
1.03513 1.03856 1.00096 0.995746
1.00107 1 1.00186 0.999211
1.00794 1 1.00969 0.998263
1.00373 1.00661 1.0005 0.996632
1.01408 1.00589 1.01065 0.997519
1.00993 1.01083 1.00203 0.997077
1.06207 1.07042 0.995786 0.996396
1.05092 1.05494 1 0.996182
1.0519 1.05823 0.997566 0.996447
1.00586 1.00613 1.00379 0.995951
1.03198 1.03639 1 0.995742
1.00013 1 1.00077 0.999356
0.999674 1 1.00101 0.998665
1.00146 1 1.00273 0.998738
1.00111 1 1.00262 0.998493
1.00056 1 1.00173 0.998834
0.999577 1 1 0.999577
0.999576 1 1.00005 0.99953
0.999979 1 1 0.999979
0.999607 1 1.00016 0.999451
0.999965 1 1 0.999965
1 1 1 1
0.999947 1 1 0.999947
1 1 1 1
1 1 1 1
1.00013 1 1.00026 0.999878
1.0021 1 1.00241 0.999687
1 1 1 1
1 1 1 1
1.00306 1 1.0036 0.999466
1 1 1 1
1.0693 1.07353 1 0.996063
1.07058 1.07519 0.999509 0.996205
1.06972 1.07869 0.995203 0.996461
1.06739 1.07814 0.993398 0.996615
1.06729 1.07187 0.999517 0.996201
1.02553 1.02925 1 0.996383
1.06671 1.07127 0.999558 0.99619
1.06736 1.07692 0.994502 0.9966
1.06902 1.07891 0.994263 0.996546
1.06157 1.07458 0.991023 0.996839
1.068 1.07499 0.997163 0.99632
1.06197 1.0779 0.988359 0.996823
1.06763 1.07686 0.994838 0.996575
1.05987 1.07366 0.990336 0.996791
1.06291 1.07651 0.990466 0.996874
1.06269 1.07984 0.987115 0.996958
1.06179 1.07564 0.990466 0.996633
1.06418 1.08296 0.985591 0.997022
1.0664 1.0709 0.999592 0.9962
1.06708 1.07272 0.998491 0.996251
1.06738 1.0769 0.994537 0.996601
1.06668 1.07484 0.995985 0.996406
1.00896 1.01045 1.00124 0.997291
1.02815 1.03204 1 0.996232
1.04515 1.04944 1.00018 0.99573
1.06252 1.06734 0.999202 0.996284
1.05598 1.07014 0.989906 0.996839
1.05703 1.06378 0.997078 0.996565
1.054 1.05835 1 0.995895
1.05097 1.05605 0.998447 0.996737
1.00951 1.01043 1.00225 0.996841
1.00723 1.00709 1.00354 0.99661
1.00724 1 1.00878 0.998464
1.00756 1.00012 1.01008 0.997394
1.06794 1.07659 0.995395 0.996555
1.06957 1.0785 0.995236 0.996466
1.05739 1.07058 0.990893 0.996757
1.05636 1.07198 0.988597 0.996803
1.01605 1.01923 1.00035 0.996537
1.03206 1.03631 1.00003 0.995868
1.04309 1.04738 1.00039 0.995522
1.05715 1.06719 0.99391 0.996665
1.05473 1.07169 0.987115 0.997018
1.04875 1.05298 1 0.995979
1.04951 1.06114 0.992084 0.996932
1.053 1.05861 0.997896 0.996795
1.00994 1.0135 1.00002 0.996466
1.00682 1.00671 1.00364 0.996481
1.0076 1.00315 1.00747 0.996995
1.00492 1 1.00621 0.998719
1.01202 1.00052 1.01391 0.997614
1.05874 1.07262 0.990249 0.996773
1.05899 1.07438 0.988848 0.99679
1.05485 1.07682 0.982545 0.997002
1.0498 1.06779 0.986083 0.997022
1.01784 1.02174 1 0.996186
1.05319 1.06542 0.9914 0.997104
1.01998 1.02419 1.00029 0.995608
1.03603 1.04031 1.00051 0.995372
1.04643 1.0508 0.999845 0.995995
1.00101 1 1.00196 0.999052
1.01048 1 1.0125 0.998004
1.00754 1.00012 1.01017 0.997287
1.00763 1.01088 1.00046 0.996328
1.00925 1.00514 1.00754 0.996579
1.00914 1.00687 1.00595 0.996322
0.999915 1 1 0.999915
1.00444 1 1.00545 0.998992
1.06634 1.07095 0.999552 0.996147
1.01322 1.00152 1.01384 0.997868
1.0037 1.00592 1.00076 0.99704
1.00651 1.00547 1.0039 0.997142
1.05508 1.05926 1 0.99605
1.05602 1.06087 0.999219 0.996205
1.02109 1.02277 1.00229 0.996075
1.03416 1.03773 1.00077 0.995782
1.05735 1.06142 1 0.996166
1.00052 1 1.0013 0.999217
1.0088 1 1.01056 0.998266
1.00655 1.00951 1.00047 0.996601
1.01419 1.00505 1.01161 0.997516
1.01018 1.01138 1.00176 0.997062
1.06084 1.06915 0.995823 0.996391
1.05285 1.0569 1 0.996169
1.05362 1.05974 0.99775 0.996469
1.00779 1.00864 1.00324 0.995921
1.0301 1.03448 1.00006 0.99571
1.00279 1 1.00423 0.998561
1.01254 1.00058 1.01415 0.99783
1.00484 1.00629 1.00211 0.996453
1.01635 1.0116 1.00751 0.997208
1.02237 1.02449 1.00107 0.996874
1.05224 1.06861 0.987755 0.996888
1.05413 1.05832 1 0.996041
1.05691 1.06275 0.998082 0.996419
1.00954 1.00935 1.00433 0.995871
1.01483 1.01941 1 0.995504
0.99976 1 1.0004 0.999359
0.999429 1 1.00075 0.998678
0.998737 1 1.00027 0.998464
1.00035 1 1.00164 0.998714
0.999995 1 1.00117 0.998832
1.002 1 1.00353 0.998475
0.999912 1 1.00144 0.998478
1.00266 1 1.00425 0.998418
0.999227 1 1.00034 0.99889
0.999573 1 1 0.999573
0.999577 1 1 0.999577
0.999992 1 1 0.999992
0.999533 1 1 0.999533
0.999983 1 1 0.999983
1 1 1 1
0.999971 1 1 0.999971
1 1 1 1
1 1 1 1
0.999965 1 1 0.999965
1.00042 1 1.00057 0.999854
1 1 1 1
1.00233 1 1.00267 0.999667
1 1 1 1
1 1 1 1
1.06898 1.07592 0.997231 0.996315
1.06925 1.0792 0.994217 0.996546
1.06218 1.07803 0.988417 0.996845
1.06085 1.07444 0.990454 0.996868
1.06736 1.07675 0.994669 0.996595
1.06653 1.07106 0.999574 0.996191
1.06778 1.07677 0.995071 0.996557
1.06043 1.07371 0.990812 0.996784
1.06224 1.07582 0.99049 0.996859
1.06117 1.07913 0.98635 0.996969
1.06159 1.07526 0.990621 0.996636
1.06155 1.08122 0.984705 0.997058
1.06094 1.07382 0.99121 0.996765
1.06223 1.08096 0.985664 0.99696
1.0635 1.08276 0.985122 0.997047
1.05612 1.07949 0.981223 0.997073
1.06809 1.07674 0.995403 0.996554
1.06924 1.07813 0.995285 0.996448
1.05751 1.07081 0.990756 0.996788
1.05735 1.07211 0.989414 0.996786
1.01796 1.02108 1.00041 0.996531
1.03101 1.03525 1 0.995902
1.04293 1.04702 1.00058 0.99551
1.05779 1.06711 0.994633 0.996615
1.05309 1.07068 0.986457 0.997073
1.05053 1.06223 0.992021 0.996932
1.04704 1.05128 1 0.995964
1.05392 1.05912 0.99823 0.996863
1.00482 1.0079 1.00048 0.996469
1.00622 1.00705 1.00272 0.996466
1.00828 1.00259 1.00871 0.996991
1.00494 1 1.00625 0.998692
1.01143 1.0001 1.0137 0.997655
1.05876 1.07259 0.9903 0.996775
1.05963 1.07502 0.988856 0.996786
1.05525 1.07611 0.983575 0.996995
1.01779 1.02169 1 0.996185
1.01988 1.02408 1.00026 0.995643
1.03479 1.03882 1.00076 0.99536
1.05008 1.06771 0.986447 0.997008
1.0495 1.05401 0.999607 0.996118
1.04946 1.06199 0.991103 0.99707
1.00138 1 1.00227 0.999105
1.00694 1.00851 1.00213 0.996324
1.00929 1.00536 1.0075 0.99643
1.01251 1.00692 1.00901 0.996573
1.01028 1.00219 1.01079 0.997309
1.01095 1 1.01301 0.997971
1.06107 1.07908 0.986415 0.996846
1.05926 1.08353 0.9806 0.996943
1.04829 1.07473 0.978253 0.997078
1.04414 1.0691 0.979384 0.997216
1.011 1.01477 1.00027 0.996016
1.04504 1.05264 0.996104 0.996662
1.00883 1.01198 1.00165 0.995251
1.0234 1.02724 1.00104 0.995229
0.999535 1 1.00008 0.999458
1.00526 1 1.00684 0.998433
1.00947 1.0003 1.01156 0.997643
1.0111 1.00271 1.01163 0.996774
1.0066 1.00507 1.00531 0.996237
1.01438 1.00579 1.01245 0.996138
1.00043 1 1.00121 0.999222
1.00946 1 1.01121 0.99827
1.0597 1.06797 0.995857 0.996387
1.01379 1.00401 1.01227 0.997512
1.00937 1.01257 1.00027 0.996569
1.00945 1.0109 1.00152 0.997046
1.05486 1.05893 1 0.996155
1.05513 1.06107 0.997903 0.996492
1.01029 1.0117 1.00273 0.995891
1.02805 1.03224 1.00027 0.995677
1.00301 1 1.00445 0.998565
1.01263 1.0003 1.01456 0.997804
1.00525 1.00681 1.002 0.996459
1.01591 1.0119 1.00676 0.997214
1.02479 1.02746 1.00048 0.996926
1.05466 1.07086 0.9879 0.996935
1.05369 1.05784 1 0.99608
1.05798 1.06345 0.998347 0.996499
1.01054 1.01014 1.00458 0.995836
1.01439 1.01903 1.00003 0.995416
1.00354 1 1.00528 0.998265
1.01188 1.00193 1.01252 0.99745
1.01471 1.01452 1.00378 0.996417
1.02061 1.02209 1.0018 0.99676
1.05296 1.09044 0.968362 0.997179
1.05307 1.06484 0.991983 0.996939
1.03871 1.04325 1 0.995647
1.01753 1.01783 1.00426 0.995462
1.00004 1 1.00135 0.998691
0.999014 1 1.00055 0.998466
0.998914 1 1.00036 0.998554
1.00042 1 1.00159 0.99883
1.00351 1 1.00506 0.998457
0.99929 1 1.0004 0.998886
0.99976 1 1.00126 0.998503
1.0034 1 1.00498 0.998426
0.998659 1 1 0.998659
1.00296 1 1.00467 0.998304
1.00177 1 1.0034 0.998384
0.998864 1 1 0.998864
0.99953 1 1 0.99953
0.99957 1 1 0.99957
0.999997 1 1 0.999997
0.999577 1 1 0.999577
0.999993 1 1 0.999993
1 1 1 1
0.999987 1 1 0.999987
1 1 1 1
1 1 1 1
0.999992 1 1 0.999992
0.999948 1 1 0.999948
1 1 1 1
1.001 1 1.00117 0.999829
1 1 1 1
1 1 1 1
1.06129 1.07478 0.990775 0.996638
1.06168 1.07524 0.990519 0.996844
1.05901 1.07953 0.98385 0.997095
1.05962 1.07844 0.985526 0.996979
1.06098 1.0738 0.991258 0.996777
1.06792 1.0767 0.995296 0.996538
1.06065 1.07367 0.99108 0.996765