# vtk DataFile Version 2.0
Wound Healing Simulation
ASCII
DATASET UNSTRUCTURED_GRID
POINTS 3012 float
69.9759 18.75 4
67.2507 60.3285 4
69.976 18.75 2
73.0099 25.446 4
71.1327 20.9142 4
68.6801 16.6661 4
67.8225 19.9264 3.97561
67.2507 60.3286 2
71.1327 54.0858 4
68.6801 58.3339 4
65.6939 62.2254 4
65.3095 58.9996 3.97472
74.6784 42.3946 4
73.7221 47.2057 4
69.9759 18.75 0
73.0099 25.446 2
68.6801 16.6661 2
71.1327 20.9142 2
67.8232 19.93 2
74.6792 32.6053 4
73.7222 27.7943 4
72.1454 23.1494 4
70.6119 26.2216 3.97544
68.8829 21.9581 3.97599
67.2507 14.6715 4
66.6338 17.9731 3.97438
65.7878 21.0291 3.96419
67.2507 60.3285 0
71.1327 54.0858 2
68.6801 58.3339 2
65.694 62.2255 2
65.3105 58.9947 2
72.1454 51.8506 4
69.9759 56.25 4
68.8334 53.1134 3.97543
64.0165 64.0165 4
66.6077 57.1326 3.97514
63.8825 60.7635 3.97432
63.4931 57.7643 3.96583
60.3285 67.2507 4
74.6792 42.3947 2
73.7222 47.2057 2
74.9194 39.9526 4
74.2788 44.8158 4
72.1666 42.0857 3.97679
73.0099 49.554 4
71.2471 46.598 3.9753
73.0099 25.446 0
71.1327 20.9142 0
68.6801 16.6661 0
67.8225 19.9264 0.0243859
74.6792 32.6053 2
73.7222 27.7943 2
67.2508 14.6715 2
72.1455 23.1494 2
70.6116 26.2222 2
66.6349 17.9776 2
68.8831 21.9605 2
65.7851 21.0309 2
74.9197 35.0474 4
74.2794 30.1841 4
72.1833 32.9442 3.97703
71.2762 28.4322 3.97569
69.813 24.0598 3.9758
68.3403 26.9545 3.96453
66.7536 22.9363 3.9641
65.694 12.7746 4
65.3201 16.1057 3.97309
64.7051 19.2005 3.96441
63.8048 22.0675 3.96439
71.1327 54.0858 0
65.6939 62.2254 0
68.6801 58.3339 0
65.3095 58.9996 0.0252849
72.1455 51.8506 2
69.9759 56.25 2
68.8335 53.1109 2
64.0165 64.0165 2
66.6085 57.1284 2
63.8842 60.7583 2
63.4914 57.764 2
62.2254 65.694 4
58.8919 65.413 3.98377
69.7662 50.9893 3.97515
67.7806 55.1671 3.97557
66.6383 52.2067 3.96423
62.3327 62.4244 3.97744
64.6525 56.0271 3.96524
62.196 59.3917 3.96579
61.7767 56.6547 3.96186
58.3339 68.6801 4
60.3285 67.2508 2
73.7221 47.2057 0
74.6784 42.3946 0
74.9197 39.9526 2
74.2794 44.8159 2
72.1659 42.0854 2
73.0099 49.554 2
71.2467 46.5976 2
75 37.5 4
72.4039 39.8025 3.97773
71.7807 44.3529 3.97642
69.7991 41.7899 3.96705
70.5726 48.8136 3.97488
68.9059 46.014 3.96548
74.6792 32.6053 0
73.7222 27.7943 0
67.2507 14.6715 0
72.1454 23.1494 0
70.6119 26.2216 0.0245636
68.8829 21.9581 0.0240131
66.6338 17.9731 0.0256187
65.7878 21.0291 0.0358077
74.9197 35.0474 2
74.2794 30.1841 2
72.1825 32.9446 2
71.2759 28.4328 2
65.694 12.7745 2
65.3215 16.111 2
69.8128 24.0611 2
68.34 26.9556 2
64.7025 19.2019 2
66.7533 22.9378 2
63.8041 22.0684 2
72.4118 35.2249 3.97779
71.8022 30.6772 3.97667
69.8352 33.271 3.96698
68.9603 29.0412 3.96537
67.6042 24.9148 3.96421
66.0974 27.6599 3.96812
64.0165 10.9835 4
64.6656 23.8606 3.96575
63.8861 14.3303 3.97379
63.5042 17.4567 3.96512
62.8307 20.3549 3.96248
61.923 23.0075 3.96829
60.6811 11.1015 3.9787
57.6059 11.4728 3.96963
72.1454 51.8506 0
69.9759 56.25 0
68.8334 53.1134 0.0245711
64.0165 64.0165 0
63.8825 60.7635 0.0256758
66.6077 57.1326 0.0248618
63.4931 57.7643 0.0341689
62.2255 65.694 2
58.8941 65.4094 2
69.7659 50.9878 2
67.7812 55.1637 2
66.6374 52.2055 2
62.3351 62.4199 2
64.6511 56.0266 2
62.1935 59.3914 2
61.7768 56.6551 2
60.6661 63.9737 3.98008
57.0229 66.7339 3.98704
57.5529 63.6761 3.97143
67.4964 50.1746 3.96434
65.6934 54.1706 3.96448
64.4323 51.3546 3.96587
60.7676 60.9183 3.96861
62.7529 55.0401 3.96346
60.6278 58.1313 3.96072
60.2279 55.7356 3.9646
56.25 69.9759 4
58.3339 68.6801 2
60.3285 67.2507 0
58.9183 9.65931 3.98009
62.2254 9.30607 4
73.0099 49.554 0
74.2788 44.8158 0
71.2471 46.598 0.0247046
72.1666 42.0857 0.0232134
74.9194 39.9526 0
75 37.5 2
72.4037 39.8024 2
71.7805 44.3523 2
69.7983 41.7896 2
70.5721 48.813 2
68.9056 46.0134 2
72.4874 37.5126 3.97736
70.0366 39.6582 3.96743
69.4249 43.9072 3.96644
67.5027 41.4894 3.97195
68.257 48.1056 3.96478
66.5978 45.42 3.97015
74.9197 35.0474 0
74.2794 30.1841 0
72.1833 32.9442 0.0229695
71.2762 28.4322 0.0243147
65.694 12.7746 0
65.3201 16.1057 0.0269054
69.813 24.0598 0.0242002
68.3403 26.9545 0.0354731
66.7536 22.9363 0.0359022
64.7051 19.2005 0.0355862
63.8048 22.0675 0.0356126
72.4116 35.2249 2
71.802 30.6778 2
69.8344 33.2717 2
68.9601 29.0422 2
64.0165 10.9835 2
63.8881 14.3356 2
63.5028 17.4577 2
67.6039 24.9161 2
66.0964 27.6607 2
62.8297 20.3557 2
64.6651 23.8615 2
61.9219 23.0085 2
60.6836 11.1057 2
57.6069 11.4654 2
70.0535 35.3941 3.96744
69.462 31.1524 3.96613
67.5689 33.6026 3.97121
66.6736 29.6444 3.96893
65.4281 25.7275 3.96691
63.9352 28.3062 3.97472
62.338 12.6588 3.97663
62.6697 24.6985 3.97053
62.1908 15.8006 3.96616
61.7521 18.7209 3.96102
61.059 21.41 3.96541
60.1718 23.8219 3.97233
59.2397 12.8093 3.96745
55.8689 10.255 3.973
56.3939 13.1702 3.9688
69.7662 50.9893 0.0248471
62.2254 65.694 0
58.8919 65.413 0.0162325
67.7806 55.1671 0.024431
66.6383 52.2067 0.0357657
62.3327 62.4244 0.0225585
62.196 59.3917 0.0342132
64.6525 56.0271 0.0347645
61.7767 56.6547 0.038139
60.6684 63.9707 2
57.0254 66.732 2
57.554 63.6799 2
67.497 50.1736 2
65.691 54.1694 2
64.4323 51.3542 2
60.7664 60.92 2
62.7531 55.0403 2
60.6316 58.133 2
60.2268 55.7356 2
55.0687 67.9312 3.98819
59.2132 62.3376 3.96922
55.8013 64.9018 3.97559
56.3163 62.0453 3.97035
65.2161 49.3792 3.9672
63.6158 53.2621 3.9645
62.2248 50.5908 3.96957
59.3179 59.527 3.96249
60.9333 54.2537 3.9669
59.2002 56.9583 3.96176
59.0941 55.1163 3.96762
48.0998 68.5746 3.98441
50.9465 69.9313 3.98996
54.0858 71.1327 4
56.25 69.976 2
58.3339 68.6801 0
57.0556 8.33863 3.98217
60.3285 7.74928 4
58.9212 9.66348 2
62.2255 9.30602 2
70.5726 48.8136 0.0251194
71.7807 44.3529 0.0235788
68.9059 46.014 0.0345227
69.7991 41.7899 0.0329472
72.4039 39.8025 0.0222661
75 37.5 0
72.4866 37.5125 2
70.0364 39.6582 2
69.4246 43.9068 2
67.5011 41.4891 2
68.2582 48.1049 2
66.5953 45.4195 2
70.1248 37.523 3.96749
67.7486 39.5095 3.97234
67.117 43.4559 3.97084
65.3337 41.1893 3.97681
65.9514 47.3928 3.9689
64.4074 44.8063 3.97552
72.4118 35.2249 0.0222116
71.8022 30.6772 0.0233254
69.8352 33.271 0.0330223
68.9603 29.0412 0.0346286
64.0165 10.9835 0
63.8861 14.3303 0.0262098
63.5042 17.4567 0.0348846
67.6042 24.9148 0.0357895
66.0974 27.6599 0.0318759
64.6656 23.8606 0.0342532
62.8307 20.3549 0.0375227
61.923 23.0075 0.0317094
60.6811 11.1015 0.0213015
57.6059 11.4728 0.0303671
70.0532 35.3944 2
69.4617 31.1531 2
67.5672 33.603 2
66.6721 29.6451 2
62.3406 12.6637 2
62.1891 15.8015 2
61.7518 18.7209 2
65.4274 25.7284 2
63.9329 28.3074 2
61.0576 21.4109 2
62.6683 24.6996 2
60.1705 23.823 2
59.2403 12.8093 2
56.3955 13.1674 2
55.8709 10.253 2
67.7875 35.5544 3.97188
67.1749 31.639 3.97009
65.49 33.9499 3.97698
64.4483 30.2351 3.97594
63.3367 26.4711 3.97269
61.9409 28.8567 3.9762
60.7683 14.2462 3.96734
60.768 25.4285 3.97481
60.5747 17.1644 3.96062
60.0748 19.8891 3.9621
59.4178 22.3588 3.96809
58.6561 24.4418 3.97452
54.0341 9.14735 3.97339
57.8973 14.3769 3.96603
54.7761 12.0659 3.96876
55.2938 14.7158 3.9662
67.4964 50.1746 0.0356619
57.0229 66.7339 0.0129584
60.6661 63.9737 0.019915
57.5529 63.6761 0.0285748
65.6934 54.1706 0.03552
64.4323 51.3546 0.0341253
60.7676 60.9183 0.0313891
60.6278 58.1313 0.0392777
62.7529 55.0401 0.0365442
60.2279 55.7356 0.0353956
55.0708 67.9296 2
59.2132 62.3398 2
55.8017 64.9007 2
56.315 62.0454 2
65.2156 49.3786 2
63.6154 53.2618 2
62.2245 50.5903 2
59.3178 59.5296 2
60.9337 54.2537 2
59.2053 56.9597 2
59.0977 55.1168 2
53.0408 68.9993 3.98968
53.9635 66.0053 3.97871
57.8679 60.8334 3.9689
54.6748 63.1792 3.97099
55.1936 60.5636 3.97269
62.9613 48.6037 3.97176
61.5581 52.5154 3.96824
59.9527 49.9292 3.97209
57.9717 58.2165 3.96133
59.126 53.8706 3.96906
57.9545 55.734 3.96298
50.1065 67.8526 3.98354
47.4607 66.5714 3.97946
46.0538 69.1538 3.98523
48.1005 68.5748 2
48.8004 70.7225 3.99042
50.9481 69.9306 2
51.8506 72.1454 4
54.0858 71.1327 2
56.25 69.9759 0
55.1007 7.14299 3.98573
58.3339 6.31992 4
57.0588 8.34208 2
60.3286 7.74926 2
58.9183 9.65931 0.0199081
62.2254 9.30607 0
68.257 48.1056 0.0352153
69.4249 43.9072 0.0335574
66.5978 45.42 0.0298484
67.5027 41.4894 0.0280484
70.0366 39.6582 0.0325695
72.4874 37.5126 0.0226372
70.124 37.5232 2
67.7465 39.5094 2
67.1161 43.4555 2
65.3307 41.1886 2
65.9513 47.3923 2
64.4054 44.8054 2
67.8493 37.5241 3.97228
65.5729 39.3616 3.97672
64.9479 42.9936 3.97676
63.433 40.9016 3.97666
63.718 46.6655 3.97378
62.4533 44.1515 3.97646
70.0535 35.3941 0.032562
69.462 31.1524 0.0338732
67.5689 33.6026 0.0287878
66.6736 29.6444 0.0310685
62.338 12.6588 0.0233671
62.1908 15.8006 0.0338379
61.7521 18.7209 0.0389801
65.4281 25.7275 0.0330881
63.9352 28.3062 0.0252838
62.6697 24.6985 0.0294712
61.059 21.41 0.0345936
60.1718 23.8219 0.0276731
59.2397 12.8093 0.0325493
56.3939 13.1702 0.031196
55.8689 10.255 0.0269998
67.7852 35.5547 2
67.1741 31.6395 2
65.4864 33.9508 2
64.4457 30.2362 2
60.768 14.247 2
60.5735 17.1642 2
60.0733 19.8899 2
63.3348 26.4722 2
61.9386 28.8575 2
59.4195 22.3594 2
60.7661 25.4297 2
58.6553 24.4431 2
57.8961 14.3771 2
55.2948 14.7131 2
54.0362 9.14742 2
54.7769 12.0612 2
65.6715 35.6798 3.97681
64.9677 32.1877 3.97677
63.9979 34.2785 3.9767
62.2577 30.7004 3.97629
61.3513 27.1583 3.9758
60.463 29.2357 3.97637
59.2923 15.7072 3.96127
58.9717 25.9193 3.97621
59.0216 18.4249 3.96059
58.521 20.958 3.96357
57.9754 23.2199 3.96959
57.6128 24.8043 3.97519
52.1094 8.16264 3.97708
53.0492 11.0535 3.9702
56.6506 15.8047 3.96136
53.7897 13.7545 3.96505
54.3372 16.0831 3.96086
55.0687 67.9312 0.0118072
65.2161 49.3792 0.0327986
55.8013 64.9018 0.0244133
59.2132 62.3376 0.0307764
56.3163 62.0453 0.0296472
63.6158 53.2621 0.0354994
62.2248 50.5908 0.0304274
59.3179 59.527 0.0375114
59.2002 56.9583 0.0382359
60.9333 54.2537 0.0330985
59.0941 55.1163 0.0323777
53.0427 68.9985 2
53.9645 66.0052 2
57.8664 60.8344 2
54.6744 63.1809 2
55.1907 60.5638 2
62.96 48.6029 2
61.558 52.5151 2
59.9539 49.9287 2
57.9686 58.2176 2
59.1298 53.8709 2
57.9512 55.7325 2
52.0676 66.9948 3.98208
52.948 64.2033 3.97558
56.6239 59.445 3.96672
[...]
POINT_DATA 3012
SCALARS Jp_lamdaP float 4
LOOKUP_TABLE default
0.999664 1 1 0.999664
1 1 1 1
0.999674 1 1 0.999674
0.999609 1 1 0.999609
0.999666 1 1 0.999666
0.999645 1 1 0.999645
0.999129 1.0003 1 0.998827
1 1 1 1
1 1 1 1
1 1 1 1
0.999739 1 1 0.999739
0.998934 1 1 0.998934
0.999607 1 1 0.999607
0.999614 1 1 0.999614
0.999676 1 1 0.999676
0.999636 1 1 0.999636
0.999652 1 1 0.999652
0.999683 1 1 0.999683
0.999234 1.00041 1 0.998828
1 1 1 1
0.999591 1 1 0.999591
0.999643 1 1 0.999643
0.998703 1 1 0.998703
0.999079 1.00027 1 0.998805
0.99965 1 1 0.99965
0.998849 1.00001 1 0.998841
1.01375 1.01624 1 0.997551
1 1 1 1
0.999824 1 1 0.999824
0.999837 1 1 0.999837
1 1 1 1
0.998943 1 1 0.998943
0.99964 1 1 0.99964
0.999667 1 1 0.999667
0.999644 1.00067 1 0.998976
1 1 1 1
0.99911 1.00005 1 0.999059
0.999035 1 1 0.999035
1.00665 1.00914 1 0.997532
1 1 1 1
1 1 1 1
0.999807 1 1 0.999807
1 1 1 1
0.99962 1 1 0.99962
0.998634 1 1 0.998634
1 1 1 1
0.998879 1 1 0.998879
0.99966 1 1 0.99966
0.999695 1 1 0.999695
0.999653 1 1 0.999653
0.999308 1.00048 1 0.998833
0.999791 1 1 0.999791
0.999616 1 1 0.999616
0.999664 1 1 0.999664
0.999667 1 1 0.999667
0.9987 1 1 0.9987
0.998979 1.00014 1 0.998844
0.999068 1.00026 1 0.998806
1.014 1.0165 1 0.997537
1 1 1 1
0.999592 1 1 0.999592
0.998908 1 1 0.998908
0.998674 1 1 0.998674
0.998792 1.00004 1 0.998757
1.01691 1.01968 1 0.997288
1.01504 1.01768 1 0.9974
0.999715 1 1 0.999715
0.998943 1 1 0.998943
1.01098 1.01337 1 0.997641
1.03352 1.03698 1 0.996663
1 1 1 1
1 1 1 1
1 1 1 1
0.998952 1 1 0.998952
1 1 1 1
1 1 1 1
0.999375 1.00058 1 0.998796
0.999903 1 1 0.999903
0.998966 1.00007 1 0.998899
0.999185 1 1.00003 0.999152
1.00534 1.00783 1 0.997528
1 1 1 1
1.0012 1 1.00144 0.999756
0.999217 1.0005 1 0.998718
0.999252 1.00042 1 0.998829
1.01816 1.02112 1 0.997107
0.999753 1 1.00035 0.999408
1.01143 1.01404 1 0.997431
1.00225 1.00458 1 0.997682
1.01515 1.0184 1 0.996808
1 1 1 1
1 1 1 1
1 1 1 1
1 1 1 1
1 1 1 1
0.999808 1 1 0.999808
0.998763 1 1 0.998763
0.999809 1 1 0.999809
0.998814 1.00003 1 0.998784
1 1 1 1
0.998648 1 1 0.998648
0.998873 1 1 0.998873
1.01622 1.01935 1 0.996926
0.999036 1.00012 1 0.998913
1.01957 1.02268 1 0.996957
0.999629 1 1 0.999629
0.999638 1 1 0.999638
0.999674 1 1 0.999674
0.999687 1 1 0.999687
0.998698 1 1 0.998698
0.999086 1.00028 1 0.998809
0.999055 1.00021 1 0.99885
1.0142 1.01672 1 0.997523
1 1 1 1
0.999616 1 1 0.999616
0.998677 1 1 0.998677
0.998668 1 1 0.998668
0.999858 1 1 0.999858
0.99902 1 1 0.99902
0.998787 1.00003 1 0.998756
1.01691 1.01971 1 0.997251
1.01152 1.01392 1 0.997624
1.01535 1.01797 1 0.997427
1.0334 1.03685 1 0.99667
0.998671 1 1 0.998671
0.998671 1 1 0.998671
1.01521 1.01809 1 0.997171
1.01696 1.01981 1 0.997199
1.01659 1.01934 1 0.9973
1.04269 1.04624 1 0.996605
1 1 1 1
1.03667 1.04016 1 0.996641
0.999409 1 1.00026 0.999148
1.00628 1.00868 1 0.997619
1.03005 1.03347 1 0.996684
1.03955 1.04315 1 0.996546
1.00138 1 1.0019 0.999482
1.00651 1 1.00814 0.998391
1 1 1 1
1 1 1 1
0.99929 1.00049 1 0.998802
1 1 1 1
0.999273 1 1.00017 0.999105
0.998954 1.00005 1 0.998906
1.00419 1.00669 1 0.997525
1 1 1 1
1.0009 1 1.00112 0.99978
0.9994 1.00057 1 0.998832
0.999208 1.00027 1 0.998935
1.01761 1.02056 1 0.997108
1.00004 1 1.00069 0.99935
1.0101 1.0127 1 0.997434
1.00137 1.00367 1.00002 0.997681
1.01644 1.01971 1 0.996796
1.0012 1 1.00164 0.999558
1.00013 1 1.00025 0.999886
1.00367 1 1.00499 0.998685
1.02003 1.02309 1 0.997006
1.01526 1.01804 1 0.997268
1.04005 1.04369 1 0.99651
1.00024 1.00167 1.00061 0.997965
1.02545 1.02879 1 0.996758
1.0105 1.01307 1.00057 0.996897
1.02514 1.02859 1 0.996644
1 1 1 1
1 1 1 1
1 1 1 1
1.00094 1 1.00131 0.999627
1 1 1 1
1 1 1 1
1 1 1 1
0.998824 1.00014 1 0.998689
0.998667 1 1 0.998667
1 1 1 1
1 1 1 1
0.998649 1 1 0.998649
0.998778 1 1 0.998778
1.01685 1.01998 1 0.996927
0.998994 1.00029 1 0.998705
1.01977 1.02288 1 0.996957
0.998646 1 1 0.998646
1.01479 1.01795 1 0.996895
1.01814 1.02126 1 0.996954
1.04808 1.05171 1 0.996545
1.02029 1.0234 1 0.996964
1.04941 1.05305 1 0.996543
1 1 1 1
0.999639 1 1 0.999639
0.998421 1 1 0.998421
0.998663 1 1 0.998663
1 1 1 1
0.999102 1 1 0.9991
0.998788 1.00003 1 0.998758
1.01688 1.01972 1 0.997215
1.01571 1.0183 1 0.997454
1.01211 1.01454 1 0.997607
1.03334 1.03678 1 0.996678
0.998668 1 1 0.998668
0.998665 1 1 0.998665
1.01512 1.01813 1 0.997044
1.01703 1.01987 1 0.99722
1 1 1 1
0.99931 1 1.00012 0.999194
1.00768 1.01001 1 0.997698
1.01659 1.01935 1 0.997295
1.0425 1.04607 1 0.996591
1.02954 1.03297 1 0.996677
1.03693 1.04039 1 0.996676
1.03912 1.04271 1 0.996555
1.00123 1 1.00176 0.99947
1.00502 1 1.00664 0.998393
1.01456 1.0177 1 0.996915
1.01574 1.0186 1 0.997192
1.04516 1.04872 1 0.996607
1.04318 1.04677 1 0.996572
1.04013 1.0436 1 0.996678
1.04974 1.0534 0.999833 0.996693
1.00048 1 1.00117 0.999316
1.04205 1.04557 1 0.996631
1.00164 1.00374 1.00011 0.997807
1.02284 1.02616 1 0.99676
1.03702 1.04068 1 0.996483
1.03973 1.04313 1 0.996742
1.00307 1.00021 1.00471 0.998159
1.00448 1 1.00581 0.998681
1.00326 1.00011 1.00546 0.997708
0.999348 1.0006 1 0.998747
1 1 1 1
1.00024 1 1.00044 0.999803
0.999075 1.00021 1 0.998863
1.01703 1.01998 1 0.997108
1.00022 1 1.00087 0.999353
1.00012 1.00241 1.00004 0.997679
1.00884 1.01143 1 0.997436
1.01771 1.02099 1 0.996785
1.00109 1 1.00151 0.99958
0.999903 1 1 0.999903
1.00434 1 1.00566 0.998686
1.01949 1.02256 1 0.997004
1.01448 1.01726 1 0.997272
1.04014 1.04379 1 0.996505
0.999437 1.00098 1.00049 0.997969
1.02668 1.03001 1 0.996763
1.00995 1.01262 1.00047 0.996891
1.02589 1.02935 1 0.996639
0.999948 1 1 0.999948
1.00163 1.0003 1.00304 0.998297
1.00255 1 1.00347 0.999084
1.00427 1.00021 1.00607 0.998002
1.04445 1.04814 1 0.996479
1.03418 1.03767 1 0.996629
1.04399 1.04771 1 0.996454
1.00482 1.00712 1.00049 0.997229
1.03178 1.03523 1 0.996664
1.02105 1.02294 1.00158 0.996576
1.03347 1.03704 1 0.996558
0.999668 1 1 0.999668
0.99999 1 1 0.99999
1 1 1 1
1 1 1 1
1 1 1 1
1.0001 1 1.00034 0.999761
1 1 1 1
1.00133 1 1.00172 0.999612
1 1 1 1
0.999069 1.00036 1 0.998706
0.998682 1 1 0.998682
1.02 1.02312 1 0.996956
1.01745 1.02059 1 0.996927
0.998651 1 1 0.998651
1 1 1 1
0.998645 1 1 0.998645
1.01515 1.01831 1 0.996895
1.01865 1.02177 1 0.996953
1.04722 1.05086 1 0.996543
1.02014 1.02324 1 0.996961
1.04948 1.05312 1 0.99654
1.01431 1.01747 1 0.996892
1.0464 1.05006 1 0.996517
1.04898 1.0526 1 0.996556
1.05276 1.05829 0.997942 0.996831
1.04868 1.05236 1 0.996507
1.05531 1.05933 0.999473 0.996733
0.998666 1 1 0.998666
0.998659 1 1 0.998659
1.01504 1.01818 1 0.996917
1.01713 1.01995 1 0.997242
1 1 1 1
0.999241 1 1 0.999241
1.00907 1.01132 1 0.997776
1.01658 1.01934 1 0.99729
1.04235 1.04593 1 0.996577
1.03712 1.04054 1 0.996711
1.02905 1.03249 1 0.996671
1.03884 1.04242 1 0.996564
1.00128 1 1.00183 0.999458
1.00421 1 1.00583 0.998395
1.01445 1.0176 1 0.996897
1.0158 1.01867 1 0.997187
1.045 1.04859 0.999947 0.996629
1.04324 1.04681 1 0.996581
1.00018 1 1.00087 0.999305
1.00301 1.00513 1.00008 0.997805
1.02224 1.02553 1 0.996792
1.04041 1.04389 1 0.996662
1.04985 1.05352 0.99978 0.996735
1.03669 1.04037 1 0.996463
1.04185 1.04537 1 0.996636
1.03995 1.04335 1 0.996739
1.00281 1.00031 1.00435 0.998161
1.00399 1.00036 1.00594 0.99771
1.00484 1 1.00617 0.99868
1.0447 1.04828 1 0.996576
1.04462 1.04817 0.999962 0.996643
1.05263 1.05759 0.998538 0.996769
1.05086 1.05488 0.999456 0.99673
1.04505 1.04856 0.999938 0.996715
1.04531 1.05171 0.996877 0.997024
0.999494 1.0009 1.0006 0.997996
1.04189 1.04534 0.999822 0.996875
1.01066 1.01364 1 0.997066
1.0284 1.03215 1 0.996361
1.03609 1.03979 1 0.996444
1.03448 1.03761 0.999986 0.996994
1.00244 1 1.00348 0.998957
0.999416 1.00115 1.00067 0.9976
1.00846 1 1.01062 0.997869
1.0025 1.0024 1.00266 0.997453
1.01905 1.02212 1 0.997002
0.99992 1 1 0.99992
1.00116 1 1.00156 0.999602
1.00582 1 1.00714 0.998687
1.01354 1.01631 1 0.997275
1.04027 1.04392 1 0.9965
0.998745 1.00037 1.00041 0.997974
1.00949 1.01231 1.00033 0.996885
1.02787 1.0312 1 0.996767
1.02586 1.02932 1 0.996634
0.999958 1 1 0.999958
1.00245 1.00015 1.00401 0.998298
1.00225 1 1.00316 0.999093
1.00482 1.00014 1.00669 0.997996
1.04439 1.04808 1 0.996474
1.03436 1.03786 1 0.996627
1.04355 1.04727 1 0.996451
1.00329 1.00562 1.00045 0.997236
1.03145 1.0349 1 0.996664
1.02036 1.02211 1.00173 0.996564
1.0332 1.03668 1 0.996639
0.999978 1 1 0.999978
1.00036 1 1.00099 0.999372
1.00185 1.0023 1.00191 0.997652
1.00568 1 1.00733 0.998363
1.00157 1.00066 1.00322 0.997698
1.04879 1.05246 1 0.996509
1.03771 1.04133 1 0.996528
1.03915 1.04272 1 0.996579
1.00838 1.00956 1.00199 0.996845
1.03026 1.03371 1 0.996662
1.01904 1.02191 1.00086 0.996342
0.999623 1 1 0.999623
0.999105 1 1 0.999105
0.999703 1 1 0.999703
0.99967 1 1 0.99967
0.999995 1 1 0.999995
0.999991 1 1 0.999991
1 1 1 1
1 1 1 1
1 1 1 1
0.999883 1 1 0.999883
1 1 1 1
1.00054 1 1.0008 0.999744
1 1 1 1
1.00133 1 1.00173 0.999598
1 1 1 1
1.02003 1.02314 1 0.996958
1.0191 1.02222 1 0.996953
1.04926 1.0529 1 0.996537
1.04636 1.04999 1 0.996541
1.01557 1.01874 1 0.996895
0.998645 1 1 0.998645
1.01441 1.01757 1 0.996892
1.04606 1.04971 1 0.996517
1.0484 1.05203 1 0.996554
1.05307 1.05889 0.997649 0.996849
1.04797 1.05165 1 0.996503
1.05509 1.05902 0.999554 0.99673
1.04498 1.04864 1 0.996509
1.05233 1.05859 0.997221 0.996853
1.05435 1.05922 0.998601 0.996801
1.04908 1.0576 0.994864 0.997066
1.05207 1.05563 1 0.996627
1.05055 1.0587 0.995213 0.997077
1.01437 1.01755 1 0.99688
1.01587 1.01874 1 0.997182
1.04486 1.04848 0.999891 0.996651
1.04327 1.04684 1 0.996591
0.999868 1 1.00057 0.999294
1.00433 1.00649 1.00005 0.997803
1.02207 1.02533 1 0.996824
1.04069 1.04419 1 0.996645
1.04996 1.05367 0.999704 0.996777
1.04171 1.04522 1 0.996641
1.03623 1.03993 1 0.996444
1.04016 1.04356 1 0.996736
1.00225 1.00044 1.00365 0.998163
1.0046 1.00061 1.00629 0.997712
1.00499 1 1.00632 0.998678
1.04477 1.04838 1 0.996552
1.04477 1.04832 0.999971 0.99664
1.05219 1.05735 0.998309 0.996812
1.05078 1.05489 0.999387 0.996714
1.00041 1.00166 1.00075 0.997994
1.01166 1.01464 1 0.997062
1.02711 1.03078 1.00003 0.996403
1.04515 1.04867 0.999958 0.996683
1.04501 1.05177 0.996495 0.997073
1.03673 1.04047 1 0.996406
1.04198 1.04542 0.999825 0.996878
1.03532 1.03842 0.999989 0.997029
1.00086 1.0021 1.00117 0.997601
1.00266 1.00248 1.00277 0.99742
1.00292 1 1.00397 0.998953
1.00782 1 1.00994 0.997909
1.05219 1.05752 0.998152 0.996803
1.05313 1.05782 0.998797 0.996763
1.04483 1.05334 0.994927 0.996981
1.04447 1.05406 0.993784 0.997099
1.0434 1.04774 0.998844 0.997008
1.04183 1.05074 0.994254 0.997256
1.00245 1.00509 1 0.997379
1.03622 1.04107 0.998101 0.997237
1.01554 1.01898 1 0.996624
1.02621 1.02998 1.00018 0.996164
1.03761 1.04133 1 0.996427
1.03615 1.0392 1 0.997063
1.0001 1 1.00092 0.999185
1.00815 1 1.01001 0.998158
1.0014 1.0041 1 0.997315
1.00433 1.00031 1.00645 0.997592
1.00324 1.00376 1.00217 0.997325
0.999968 1 1 0.999968
1.04422 1.04792 1 0.996468
1.00131 1 1.00221 0.999102
1.00314 1.00011 1.00474 0.998299
1.00505 1.00005 1.00703 0.997989
1.03461 1.03811 1 0.996625
1.04315 1.04687 1 0.996448
1.00201 1.00428 1.00051 0.997243
1.02105 1.02261 1.00193 0.996552
1.03127 1.03472 1 0.996664
1.03356 1.03696 1 0.996719
0.999982 1 1 0.999982
0.999976 1 1.00059 0.999381
1.00061 1.00162 1.00134 0.997655
1.00668 1 1.00833 0.998362
1.00175 1.00044 1.00363 0.997682
1.04866 1.05234 1 0.996503
1.03761 1.04123 1 0.996526
1.0392 1.04278 1 0.996568
1.00864 1.00968 1.00213 0.996848
1.03271 1.03617 1 0.996656
1.01938 1.02212 1.00096 0.996365
0.999538 1 1 0.999538
1.002 1 1.00328 0.998722
1.001 1.00322 1.00048 0.99731
1.00735 1.00053 1.00884 0.997991
1.00197 1.00231 1.00203 0.99764
1.04534 1.04879 1 0.996707
1.03355 1.03709 1 0.996589
1.03864 1.04198 1 0.996789
1.00344 1.00299 1.00379 0.996667
1.01771 1.02149 1 0.9963
0.999626 1 1 0.999626
0.999025 1 1 0.999025
0.999079 1 1 0.999079
0.998826 1 1 0.998826
0.999127 1 1 0.999127
0.999723 1 1 0.999723
0.999705 1 1 0.999705
0.999998 1 1 0.999998
0.999672 1 1 0.999672
0.999996 1 1 0.999996
1 1 1 1
0.999993 1 1 0.999993
1 1 1 1
1 1 1 1
0.999963 1 1 0.999963
1.00006 1 1.00019 0.999863
1 1 1 1
1 1 1 1
1.00097 1 1.00124 0.999728
1 1 1 1
1.04739 1.05107 1 0.996498
1.04806 1.05168 1 0.996552
1.05512 1.05897 0.999636 0.996728
1.05345 1.05955 0.997366 0.996866
1.04562 1.04927 1 0.996518
1.01444 1.0176 1 0.996891
1.045 1.04866 1 0.99651
1.05221 1.05841 0.997282 0.996848
1.05471 1.0595 0.998672 0.996801
1.04829 1.05734 0.994321 0.997097
1.05286 1.05643 1 0.99662
1.05061 1.05856 0.995378 0.997099
1.05229 1.05811 0.997671 0.996823
1.047 1.0561 0.994322 0.997041
1.04923 1.05868 0.993918 0.99714
1.04804 1.05978 0.991681 0.99722
1.05043 1.05493 0.998813 0.996919
1.04773 1.0596 0.991471 0.997307
1.04474 1.04838 1 0.996527
1.04491 1.04843 1 0.996638
1.05173 1.05708 0.998081 0.996854
1.05058 1.05478 0.999315 0.996698
1.00134 1.00244 1.00091 0.997991
1.01189 1.01488 1 0.997057
1.02537 1.02885 1.00018 0.996445
1.04523 1.04874 1 0.996652
1.04472 1.05181 0.99613 0.997123
1.04197 1.04541 0.999826 0.996881
1.03727 1.04106 1 0.996368
1.03542 1.03847 1 0.997065
1.00221 1.00282 1.00179 0.997601
1.00266 1.00238 1.0029 0.997388
1.00331 1 1.00437 0.998949
1.0069 1 1.00896 0.997949
1.05205 1.05739 0.998145 0.996802
1.05262 1.05716 0.998962 0.996743
1.04499 1.05357 0.994827 0.997013
1.0452 1.05425 0.994322 0.997081
1.00325 1.0059 1 0.997371
1.01401 1.01737 1.00003 0.996667
1.0263 1.02987 1.00039 0.996154
1.04349 1.04756 0.999157 0.996959
1.04071 1.04999 0.993833 0.997313
1.034 1.03773 1 0.996412
1.0371 1.04185 0.998195 0.997238
1.03687 1.03986 1 0.997123
1.00125 1.00394 1 0.997314
1.00292 1.00405 1.00156 0.997321
1.00532 1.00058 1.00717 0.997586
1.00058 1 1.00143 0.999149
1.00774 1 1.00956 0.998197
1.04557 1.05504 0.993973 0.997028
1.04575 1.05559 0.993598 0.997057
1.04143 1.05458 0.990206 0.997299
1.03739 1.04676 0.993713 0.99732
1.00573 1.00871 1 0.997045
1.04112 1.04607 0.997842 0.997414
1.00849 1.01187 1.00029 0.996373
1.02252 1.02614 1.00051 0.995962
1.0308 1.03451 1 0.996412
0.999433 1 1.00007 0.99936
1.00444 1 1.00593 0.99852
1.00608 1 1.00819 0.997906
1.00257 1.00539 1 0.997198
1.00397 1.00028 1.0064 0.997304
1.00395 1.00505 1.00174 0.997172
0.999986 1 1 0.999986
0.999624 1 1.00023 0.999391
1.04853 1.05222 1 0.996498
1.00793 1 1.00958 0.998361
0.999119 1.00072 1.00074 0.997658
1.0019 1.00034 1.0039 0.997666
1.03734 1.04096 1 0.996524
1.03917 1.04276 1 0.996556
1.00811 1.00899 1.00229 0.996852
1.01858 1.02148 1.00077 0.996387
1.03511 1.03859 1 0.99665
0.999544 1 1 0.999544
1.00197 1 1.00325 0.998726
1.00117 1.00346 1.00041 0.997307
1.00851 1.00032 1.01022 0.997984
1.00195 1.00258 1.00174 0.997641
1.04524 1.0487 1 0.9967
1.03412 1.03767 1 0.996577
1.03865 1.04197 1 0.996815
1.00438 1.00452 1.00324 0.996629
1.01651 1.02026 1.00006 0.996271
0.999212 1 1.00025 0.99896
1.00826 1 1.00999 0.998287
1.00246 1.00329 1.002 0.997175
1.00739 1.00258 1.00705 0.997762
1.00748 1.00899 1.001 0.997512
1.04334 1.04883 0.997564 0.997195
1.03364 1.03729 1 0.996484
1.03601 1.03932 1 0.996807
1.00664 1.00581 1.00433 0.996508
1.00737 1.01133 1 0.996081
0.999629 1 1 0.999629
0.999043 1 1 0.999043
0.99875 1 1 0.99875
0.999054 1 1 0.999054
0.999125 1 1 0.999125
0.998797 1 1 0.998797
0.998705 1 1 0.998705
0.998875 1 1.00014 0.998738
0.999145 1 1 0.999145
0.999716 1 1 0.999716
0.999723 1 1 0.999723
1 1 1 1
0.999707 1 1 0.999707
0.999999 1 1 0.999999
1 1 1 1
0.999997 1 1 0.999997
1 1 1 1
1 1 1 1
0.999994 1 1 0.999994
0.999947 1 1 0.999947
1 1 1 1
1.00041 1 1.00057 0.999843
1 1 1 1
1 1 1 1
1.05358 1.05716 1 0.996614
1.05482 1.05955 0.998739 0.996801
1.05063 1.05836 0.995565 0.997122
1.04744 1.05705 0.993765 0.997128
1.05212 1.05826 0.997351 0.996842
1.04514 1.0488 1 0.996511
1.05223 1.05793 0.997802 0.996803
1.04756 1.05626 0.994715 0.997034
1.04858 1.05811 0.993848 0.997124
1.04696 1.05934 0.991055 0.997232
1.05002 1.05429 0.999027 0.99692
1.04576 1.05839 0.9907 0.997347
1.04765 1.05603 0.99503 0.997016
1.04822 1.06091 0.990805 0.997217
1.04822 1.06159 0.990061 0.997319
1.04302 1.05555 0.990725 0.997373
1.05197 1.05732 0.998139 0.996802
1.0522 1.0566 0.99911 0.996722
1.04518 1.05381 0.994748 0.997046
1.04602 1.05454 0.994842 0.997063
1.00461 1.00726 1 0.997363
1.01326 1.0166 1 0.996709
1.02643 1.02981 1.00058 0.996143
1.0436 1.04741 0.99945 0.996909
1.0395 1.04919 0.993378 0.99737
1.03829 1.04298 0.998265 0.997239
1.03134 1.03506 1 0.996397
1.03923 1.04216 1 0.997182
1.00132 1.00401 1 0.997313
1.00327 1.00528 1.00069 0.997318
1.00668 1.00078 1.00834 0.997579
1.00096 1 1.00185 0.999113
1.00749 1 1.00927 0.998237
1.04595 1.05539 0.994017 0.99703
1.0463 1.05617 0.993586 0.997052
1.04127 1.05381 0.990794 0.99729
1.00569 1.00868 1 0.99704
1.00909 1.01246 1.00026 0.996416
1.02112 1.02449 1.00076 0.995951
1.03788 1.04691 0.994056 0.997306
1.03393 1.03754 1 0.996521
1.0376 1.04278 0.997639 0.997382
0.999449 1 1.00005 0.999395
1.003 1.00583 1 0.997189
1.00221 1.00409 1.00083 0.997298
1.00622 1.00151 1.00743 0.997295
1.00635 1 1.00844 0.99793
1.00447 1 1.006 0.998485
1.04661 1.05895 0.991217 0.997106
1.04487 1.06126 0.987291 0.997225
1.03509 1.05224 0.986287 0.997381
1.03564 1.04946 0.989285 0.997522
1.00589 1.00907 1 0.996847
1.03303 1.03663 0.999547 0.996983
1.00425 1.00667 1.00165 0.995964
1.01218 1.0154 1.00104 0.995799
0.999633 1 1 0.999633
1.00052 1 1.00171 0.99882
1.00479 1 1.00662 0.998181
1.00634 1 1.00888 0.997481
1.0031 1.00475 1.00135 0.997018
1.00778 1.00242 1.00838 0.996997
0.999549 1 1 0.999549
1.0019 1 1.00317 0.998731
1.04536 1.04882 1 0.996694
1.00957 1.00008 1.01154 0.997978
1.00138 1.00382 1.00027 0.997304
1.00141 1.00225 1.00152 0.997642
1.03488 1.03845 1 0.996565
1.03888 1.04217 1 0.996841
1.00579 1.00648 1.00273 0.996591
1.01536 1.01892 1.00027 0.996242
0.999092 1 1.00013 0.998963
1.00846 1 1.0102 0.998277
1.0031 1.00394 1.00198 0.997184
1.00636 1.00203 1.00656 0.997769
1.00788 1.00984 1.00048 0.997587
1.04453 1.05015 0.9974 0.997241
1.03322 1.03684 1 0.996506
1.03743 1.04067 1 0.996881
1.00665 1.0056 1.00458 0.996474
1.00764 1.01165 1.00003 0.99601
0.999919 1 1.00129 0.998634
1.0083 1 1.01042 0.997901
1.00815 1.0073 1.00378 0.997067
1.00666 1.00767 1.00161 0.997394
1.04116 1.06415 0.98086 0.997496
1.03799 1.04227 0.998619 0.997272
1.02115 1.02506 1 0.99619
1.01008 1.00974 1.00426 0.996091
0.999062 1 1 0.999062
0.998763 1 1 0.998763
0.998703 1 1 0.998703
0.999124 1 1 0.999124
0.998768 1 1 0.998768
0.999144 1 1 0.999144
0.998709 1 1 0.998709
0.998868 1 1.00012 0.99875
0.998741 1 1 0.998741
0.998978 1 1.00039 0.998583
0.998795 1 1.0001 0.9987
0.999125 1 1 0.999125
0.999688 1 1 0.999688
0.999715 1 1 0.999715
1 1 1 1
0.999723 1 1 0.999723
1 1 1 1
1 1 1 1
0.999999 1 1 0.999999
1 1 1 1
1 1 1 1
1 1 1 1
0.999988 1 1 0.999988
1 1 1 1
0.99993 1 1 0.99993
1 1 1 1
1 1 1 1
1.04952 1.05356 0.999247 0.996922
1.04801 1.05765 0.993756 0.997109
1.04389 1.05727 0.989927 0.997387
1.04593 1.05897 0.990419 0.997243
1.04813 1.05643 0.995105 0.997027
1.05208 1.05768 0.997918 0.996784
1.04741 1.05591 0.99492 0.997016
1.04811 1.06058 0.991007 0.997208
1.04695 1.06077 0.989629 0.997318
1.04427 1.05647 0.991052 0.997383
1.04932 1.06094 0.99186 0.997161
1.04994 1.06745 0.98619 0.99737
1.04848 1.06684 0.985313 0.997439
1.04632 1.05573 0.994043 0.997032
1.04678 1.05667 0.993576 0.997047
1.04124 1.05304 0.991489 0.997281
1.00529 1.00828 1 0.997036
1.00909 1.0125 1.00018 0.996457
1.01935 1.02264 1.00085 0.995939
1.03843 1.04709 0.994419 0.997292
1.03348 1.03894 0.997383 0.997349
1.03554 1.03904 1 0.996629
1.00203 1.00465 1.00021 0.997179
0.998595 1.00117 1 0.997424
1.00752 1.00208 1.00817 0.997286
0.999484 1 1.00005 0.99943
1.00578 1 1.00784 0.997954
1.00464 1 1.0062 0.998449
1.04739 1.05948 0.991447 0.997114
1.04426 1.06099 0.986964 0.997231
1.0353 1.05186 0.986855 0.997374
1.00332 1.0065 1 0.996839
1.00432 1.00691 1.0014 0.996042
1.01239 1.01567 1.0009 0.995877
1.03586 1.04918 0.989754 0.997526
1.03022 1.03448 0.998912 0.996963
0.999695 1 1 0.999695
1.00059 1 1.00177 0.998818
1.0004 1.00307 1.00028 0.997066