# vtk DataFile Version 2.0
Wound Healing Simulation
ASCII
DATASET UNSTRUCTURED_GRID
POINTS 3012 float
69.9759 18.75 4
67.2507 60.3285 4
69.976 18.75 2
73.0099 25.446 4
71.1327 20.9142 4
68.6801 16.6661 4
67.8226 19.9265 3.9758
67.2507 60.3286 2
71.1327 54.0858 4
68.6801 58.3339 4
65.6939 62.2254 4
65.3095 58.9997 3.97496
74.6784 42.3946 4
73.7221 47.2057 4
69.9759 18.75 0
73.0099 25.446 2
68.6801 16.6661 2
71.1327 20.9142 2
67.8232 19.93 2
74.6792 32.6053 4
73.7222 27.7943 4
72.1454 23.1494 4
70.6119 26.2216 3.97564
68.883 21.9581 3.97616
67.2507 14.6715 4
66.634 17.9731 3.97454
65.7889 21.0288 3.96439
67.2507 60.3285 0
71.1327 54.0858 2
68.6801 58.3339 2
65.694 62.2255 2
65.3107 58.9948 2
72.1454 51.8506 4
69.9759 56.25 4
68.8335 53.1133 3.97558
64.0165 64.0165 4
66.6078 57.1327 3.97539
63.8826 60.7636 3.97461
63.4933 57.7644 3.96602
60.3285 67.2507 4
74.6792 42.3947 2
73.7222 47.2057 2
74.9194 39.9526 4
74.2788 44.8158 4
72.1666 42.0857 3.97692
73.0099 49.554 4
71.2471 46.598 3.97547
73.0099 25.446 0
71.1327 20.9142 0
68.6801 16.6661 0
67.8226 19.9265 0.0241977
74.6792 32.6053 2
73.7222 27.7943 2
67.2508 14.6715 2
72.1455 23.1494 2
70.6116 26.2222 2
66.6349 17.9776 2
68.8831 21.9605 2
65.7867 21.0304 2
74.9197 35.0474 4
74.2794 30.1841 4
72.1833 32.9442 3.97715
71.2763 28.4322 3.97583
69.8131 24.0598 3.97606
68.3405 26.9543 3.96468
66.7545 22.9361 3.96426
65.694 12.7746 4
65.3202 16.1056 3.97345
64.7053 19.2005 3.96474
63.8087 22.066 3.96439
71.1327 54.0858 0
65.6939 62.2254 0
68.6801 58.3339 0
65.3095 58.9997 0.0250384
72.1455 51.8506 2
69.9759 56.25 2
68.8336 53.1109 2
64.0165 64.0165 2
66.6087 57.1284 2
63.8843 60.7584 2
63.4918 57.764 2
62.2254 65.694 4
58.8919 65.4131 3.98401
69.7663 50.9892 3.9753
67.7807 55.1671 3.9757
66.6398 52.207 3.96439
62.3327 62.4244 3.9776
64.6528 56.0271 3.96549
62.1962 59.3919 3.96603
61.7799 56.6558 3.96202
58.3339 68.6801 4
60.3285 67.2508 2
73.7221 47.2057 0
74.6784 42.3946 0
74.9197 39.9526 2
74.2794 44.8159 2
72.1659 42.0854 2
73.0099 49.554 2
71.2468 46.5976 2
75 37.5 4
72.404 39.8025 3.97784
71.7807 44.3529 3.97655
69.7992 41.79 3.96712
70.5727 48.8136 3.97504
68.906 46.0141 3.96557
74.6792 32.6053 0
73.7222 27.7943 0
67.2507 14.6715 0
72.1454 23.1494 0
70.6119 26.2216 0.0243573
68.883 21.9581 0.0238401
66.634 17.9731 0.0254632
65.7889 21.0288 0.0356064
74.9197 35.0474 2
74.2794 30.1841 2
72.1826 32.9445 2
71.2759 28.4327 2
65.694 12.7745 2
65.3216 16.1109 2
69.813 24.0611 2
68.3401 26.9554 2
64.7037 19.2015 2
66.7542 22.9374 2
63.808 22.0668 2
72.4119 35.2249 3.97789
71.8023 30.6772 3.9768
69.8353 33.271 3.96702
68.9604 29.0411 3.96546
67.6045 24.9146 3.96438
66.1012 27.6588 3.96806
64.0165 10.9835 4
64.6694 23.8592 3.96571
63.8862 14.3303 3.97412
63.5046 17.4565 3.96534
62.8342 20.3534 3.96256
61.9289 23.0051 3.96818
60.6812 11.1014 3.97894
57.6062 11.4717 3.96986
72.1454 51.8506 0
69.9759 56.25 0
68.8335 53.1133 0.024421
64.0165 64.0165 0
63.8826 60.7636 0.0253888
66.6078 57.1327 0.024607
63.4933 57.7644 0.0339781
62.2255 65.694 2
58.8942 65.4096 2
69.766 50.9878 2
67.7812 55.1637 2
66.6389 52.2058 2
62.3352 62.4199 2
64.6516 56.0265 2
62.1939 59.3916 2
61.7803 56.6562 2
60.6661 63.9737 3.98022
57.0231 66.7339 3.98729
57.5531 63.677 3.97136
67.4978 50.1748 3.96444
65.694 54.1706 3.96471
64.4369 51.3559 3.96583
60.7676 60.9185 3.9687
62.7564 55.0413 3.96356
60.6306 58.1324 3.9609
60.233 55.7376 3.96462
56.25 69.9759 4
58.3339 68.6801 2
60.3285 67.2507 0
58.9185 9.65915 3.98037
62.2254 9.30607 4
73.0099 49.554 0
74.2788 44.8158 0
71.2471 46.598 0.0245347
72.1666 42.0857 0.023078
74.9194 39.9526 0
75 37.5 2
72.4038 39.8024 2
71.7805 44.3523 2
69.7984 41.7896 2
70.5722 48.813 2
68.9057 46.0133 2
72.4874 37.5126 3.97747
70.0368 39.6583 3.9675
69.425 43.9072 3.96649
67.5055 41.4897 3.97166
68.2581 48.1057 3.96485
66.6016 45.4208 3.96994
74.9197 35.0474 0
74.2794 30.1841 0
72.1833 32.9442 0.022855
71.2763 28.4322 0.0241727
65.694 12.7746 0
65.3202 16.1056 0.0265518
69.8131 24.0598 0.0239447
68.3405 26.9543 0.0353191
66.7545 22.9361 0.0357433
64.7053 19.2005 0.0352589
63.8087 22.066 0.035606
72.4117 35.2249 2
71.8021 30.6778 2
69.8346 33.2716 2
68.9602 29.042 2
64.0165 10.9835 2
63.8883 14.3355 2
63.5031 17.4576 2
67.6041 24.9159 2
66.1004 27.6595 2
62.8338 20.3539 2
64.6691 23.86 2
61.9278 23.0061 2
60.6837 11.1056 2
57.6072 11.4644 2
70.0536 35.394 3.96749
69.4621 31.1523 3.9662
67.5719 33.6021 3.97093
66.6776 29.6435 3.96882
65.4317 25.7263 3.96681
63.9412 28.3043 3.97453
62.3381 12.6588 3.97686
62.6757 24.6963 3.97041
62.191 15.8004 3.96646
61.7556 18.7193 3.96122
61.0646 21.4074 3.96534
60.1792 23.8187 3.9722
59.2399 12.809 3.9677
55.8692 10.2534 3.97317
56.3943 13.1689 3.96873
69.7663 50.9892 0.0246956
62.2254 65.694 0
58.8919 65.4131 0.0159912
67.7807 55.1671 0.0242994
66.6398 52.207 0.0356139
62.3327 62.4244 0.0223985
62.1962 59.3919 0.0339675
64.6528 56.0271 0.0345146
61.7799 56.6558 0.0379774
60.6684 63.9707 2
57.0254 66.7323 2
57.5542 63.6806 2
67.4983 50.1739 2
65.6923 54.1696 2
64.4368 51.3555 2
60.7666 60.9201 2
62.7567 55.0415 2
60.6344 58.134 2
60.2322 55.7375 2
55.0689 67.9312 3.98841
59.2132 62.3379 3.96931
55.8015 64.902 3.976
56.3165 62.046 3.97005
65.2208 49.3804 3.96715
63.62 53.2634 3.96449
62.2317 50.593 3.96947
59.3186 59.5277 3.96299
60.939 54.2558 3.96685
59.2059 56.9605 3.96193
59.101 55.1189 3.96756
48.0999 68.5748 3.98464
50.9467 69.9313 3.99009
54.0858 71.1327 4
56.25 69.976 2
58.3339 68.6801 0
57.0557 8.33853 3.98236
60.3285 7.74928 4
58.9212 9.66335 2
62.2255 9.30602 2
70.5727 48.8136 0.0249557
71.7807 44.3529 0.0234547
68.906 46.0141 0.0344254
69.7992 41.79 0.0328812
72.404 39.8025 0.0221557
75 37.5 0
72.4867 37.5125 2
70.0365 39.6582 2
69.4247 43.9068 2
67.5039 41.4895 2
68.2587 48.105 2
66.5992 45.4203 2
70.1249 37.523 3.96754
67.7512 39.5096 3.97209
67.1206 43.4564 3.97062
65.3397 41.1898 3.9769
65.9557 47.3938 3.96874
64.4138 44.8078 3.97535
72.4119 35.2249 0.0221078
71.8023 30.6772 0.0232
69.8353 33.271 0.032975
68.9604 29.0411 0.0345424
64.0165 10.9835 0
63.8862 14.3303 0.025882
63.5046 17.4565 0.0346586
67.6045 24.9146 0.035617
66.1012 27.6588 0.0319441
64.6694 23.8592 0.0342903
62.8342 20.3534 0.0374399
61.9289 23.0051 0.031823
60.6812 11.1014 0.0210632
57.6062 11.4717 0.0301359
70.0533 35.3944 2
69.4618 31.153 2
67.5703 33.6025 2
66.6762 29.6441 2
62.3407 12.6637 2
62.1894 15.8012 2
61.7556 18.7193 2
65.431 25.7272 2
63.939 28.3054 2
61.0635 21.4083 2
62.6746 24.6973 2
60.178 23.8198 2
59.2405 12.8089 2
56.3958 13.1662 2
55.8711 10.2514 2
67.7902 35.5542 3.97165
67.1784 31.6383 3.96987
65.4959 33.949 3.97703
64.455 30.2335 3.97582
63.3429 26.469 3.97253
61.9491 28.8541 3.97622
60.7685 14.246 3.96764
60.7758 25.4253 3.97471
60.5776 17.163 3.96088
60.0807 19.8863 3.96211
59.4249 22.3554 3.96795
58.6645 24.4379 3.9745
54.0343 9.14697 3.97372
57.8976 14.3761 3.96634
54.7765 12.0634 3.96914
55.2944 14.7142 3.96659
67.4978 50.1748 0.035562
57.0231 66.7339 0.0127094
60.6661 63.9737 0.0197803
57.5531 63.677 0.028637
65.694 54.1706 0.0352912
64.4369 51.3559 0.0341685
60.7676 60.9185 0.0313004
60.6306 58.1324 0.0391045
62.7564 55.0413 0.0364385
60.233 55.7376 0.0353803
55.0708 67.9298 2
59.2134 62.3399 2
55.8018 64.9013 2
56.3153 62.046 2
65.2204 49.3798 2
63.6198 53.2632 2
62.2314 50.5924 2
59.3186 59.5299 2
60.9395 54.2557 2
59.211 56.9617 2
59.1044 55.1192 2
53.0409 68.9993 3.98984
53.9637 66.0056 3.97894
57.8681 60.8337 3.9689
54.6753 63.1813 3.97108
55.1934 60.564 3.97106
62.9684 48.6057 3.97159
61.5645 52.5175 3.96814
59.9616 49.932 3.97195
57.9762 58.2185 3.96155
59.1331 53.8733 3.96894
57.9623 55.737 3.96301
50.1066 67.8528 3.98378
47.4609 66.5719 3.97974
46.0538 69.1541 3.98541
48.1005 68.5751 2
48.8006 70.7226 3.99053
50.9481 69.9306 2
51.8506 72.1454 4
54.0858 71.1327 2
56.25 69.9759 0
55.1008 7.14281 3.98606
58.3339 6.31992 4
57.0589 8.34191 2
60.3286 7.74926 2
58.9185 9.65915 0.0196254
62.2254 9.30607 0
68.2581 48.1057 0.0351511
69.425 43.9072 0.033511
66.6016 45.4208 0.0300575
67.5055 41.4897 0.0283381
70.0368 39.6583 0.032499
72.4874 37.5126 0.0225303
70.1241 37.5231 2
67.7492 39.5095 2
67.1198 43.4561 2
65.3366 41.1891 2
65.9555 47.3934 2
64.4116 44.8069 2
67.8519 37.5241 3.97205
65.5787 39.3617 3.97677
64.9545 42.9949 3.97677
63.4402 40.9022 3.97671
63.7244 46.6671 3.97351
62.4617 44.1534 3.97653
70.0536 35.394 0.0325069
69.4621 31.1523 0.033801
67.5719 33.6021 0.0290698
66.6776 29.6435 0.0311836
62.3381 12.6588 0.0231441
62.191 15.8004 0.0335428
61.7556 18.7193 0.0387819
65.4317 25.7263 0.0331854
63.9412 28.3043 0.0254747
62.6757 24.6963 0.0295891
61.0646 21.4074 0.0346593
60.1792 23.8187 0.0278041
59.2399 12.809 0.0322976
56.3943 13.1689 0.031269
55.8692 10.2534 0.0268344
67.7881 35.5544 2
67.1778 31.6388 2
65.4923 33.95 2
64.4525 30.2345 2
60.7682 14.2466 2
60.5767 17.1627 2
60.0792 19.8871 2
63.341 26.4701 2
61.9466 28.855 2
59.4268 22.356 2
60.7741 25.4265 2
58.6639 24.4391 2
57.8964 14.3762 2
55.2951 14.7117 2
54.0363 9.14701 2
54.7773 12.0591 2
65.6772 35.6793 3.97687
64.9747 32.1864 3.97674
64.0044 34.2775 3.97677
62.2659 30.6987 3.97626
61.3591 27.1553 3.97582
60.4725 29.2331 3.9764
59.2934 15.7061 3.96165
58.9806 25.9151 3.97618
59.0272 18.4221 3.96067
58.5284 20.9544 3.96349
57.9833 23.216 3.96948
57.6219 24.7998 3.97515
52.1096 8.16234 3.97738
53.0497 11.0515 3.97056
56.6517 15.8028 3.96196
53.7907 13.7522 3.96551
54.3385 16.0803 3.96121
55.0689 67.9312 0.0115878
65.2208 49.3804 0.0328477
55.8015 64.902 0.0240034
59.2132 62.3379 0.0306926
56.3165 62.046 0.0299539
63.62 53.2634 0.0355063
62.2317 50.593 0.0305257
59.3186 59.5277 0.0370149
59.2059 56.9605 0.0380747
60.939 54.2558 0.0331471
59.101 55.1189 0.0324408
53.0427 68.9986 2
53.9645 66.0056 2
57.8667 60.8346 2
54.675 63.1831 2
55.1909 60.5641 2
62.9672 48.6049 2
61.5645 52.5172 2
59.9627 49.9315 2
57.9732 58.2193 2
59.1369 53.8735 2
57.959 55.7354 2
52.0677 66.9951 3.98235
52.9483 64.204 3.97593
56.6251 59.446 3.96756
53.6645 61.5719 3.97041
[...]
POINT_DATA 3012
SCALARS Jp_lamdaP float 4
LOOKUP_TABLE default
0.999672 1 1 0.999672
1 1 1 1
0.999682 1 1 0.999682
0.999618 1 1 0.999618
0.999675 1 1 0.999675
0.999654 1 1 0.999654
0.998952 1.00011 1 0.998847
1 1 1 1
1 1 1 1
1 1 1 1
0.999748 1 1 0.999748
0.998958 1 1 0.998958
0.999614 1 1 0.999614
0.999622 1 1 0.999622
0.999684 1 1 0.999684
0.999645 1 1 0.999645
0.999661 1 1 0.999661
0.999691 1 1 0.999691
0.999035 1.00019 1 0.998849
1 1 1 1
0.9996 1 1 0.9996
0.999651 1 1 0.999651
0.998723 1 1 0.998723
0.998927 1.0001 1 0.998825
0.99966 1 1 0.99966
0.998862 1 1 0.998862
1.01283 1.01528 1 0.997588
1 1 1 1
0.999828 1 1 0.999828
0.999841 1 1 0.999841
1 1 1 1
0.998967 1 1 0.998967
0.999648 1 1 0.999648
0.999675 1 1 0.999675
0.999397 1.0004 1 0.998994
1 1 1 1
0.999081 1 1 0.999078
0.999058 1 1 0.999058
1.00596 1.00841 1 0.99757
1 1 1 1
1 1 1 1
0.999811 1 1 0.999811
1 1 1 1
0.999628 1 1 0.999628
0.998653 1 1 0.998653
1 1 1 1
0.998897 1 1 0.998897
0.999668 1 1 0.999668
0.999703 1 1 0.999703
0.999662 1 1 0.999662
0.999089 1.00024 1 0.998854
0.999795 1 1 0.999795
0.999624 1 1 0.999624
0.999674 1 1 0.999674
0.999675 1 1 0.999675
0.99872 1 1 0.99872
0.998906 1.00004 1 0.998865
0.998919 1.00009 1 0.998826
1.01313 1.0156 1 0.997574
1 1 1 1
0.9996 1 1 0.9996
0.998923 1 1 0.998923
0.998693 1 1 0.998693
0.998779 1 1 0.998777
1.01612 1.01885 1 0.997322
1.01419 1.0168 1 0.997435
0.999724 1 1 0.999724
0.998965 1 1 0.998965
1.01014 1.01249 1 0.997679
1.03234 1.03576 1 0.996701
1 1 1 1
1 1 1 1
1 1 1 1
0.998975 1 1 0.998975
1 1 1 1
1 1 1 1
0.999144 1.00033 1 0.998818
0.999907 1 1 0.999907
0.998946 1.00002 1 0.998922
0.999203 1 1.00003 0.999173
1.00468 1.00713 1 0.997567
1 1 1 1
1.00119 1 1.00143 0.999767
0.999016 1.00028 1 0.998741
0.999064 1.00021 1 0.998852
1.01724 1.02015 1 0.997145
0.999764 1 1.00034 0.999424
1.01069 1.01326 1 0.997469
1.00173 1.00402 1 0.99772
1.01395 1.01716 1 0.996851
1 1 1 1
1 1 1 1
1 1 1 1
1 1 1 1
1 1 1 1
0.999812 1 1 0.999812
0.99878 1 1 0.99878
0.999813 1 1 0.999813
0.998804 1 1 0.998804
1 1 1 1
0.998666 1 1 0.998666
0.998889 1 1 0.998889
1.01563 1.01873 1 0.996958
0.998966 1.00004 1 0.998931
1.01874 1.02181 1 0.996992
0.999635 1 1 0.999635
0.999646 1 1 0.999646
0.999684 1 1 0.999684
0.999695 1 1 0.999695
0.998719 1 1 0.998719
0.998935 1.00011 1 0.998829
0.998948 1.00008 1 0.998871
1.01341 1.01589 1 0.997559
1 1 1 1
0.999623 1 1 0.999623
0.998694 1 1 0.998694
0.998687 1 1 0.998687
0.999863 1 1 0.999863
0.999042 1 1 0.999042
0.998779 1 1 0.998776
1.01611 1.01888 1 0.997285
1.01077 1.01314 1 0.997662
1.0145 1.01708 1 0.997463
1.03223 1.03564 1 0.996708
0.998689 1 1 0.998689
0.998689 1 1 0.998689
1.01456 1.01741 1 0.997199
1.01615 1.01897 1 0.997231
1.01585 1.01857 1 0.997334
1.04134 1.04486 1 0.996636
1 1 1 1
1.0354 1.03886 1 0.996676
0.999425 1 1.00025 0.999172
1.00562 1.00798 1 0.997659
1.02884 1.03222 1 0.996725
1.03859 1.04215 1 0.996577
1.00135 1 1.00185 0.9995
1.00648 1 1.00807 0.998423
1 1 1 1
1 1 1 1
0.999098 1.00027 1 0.998824
1 1 1 1
0.999288 1 1.00016 0.999128
0.998936 1.00001 1 0.998928
1.00354 1.00599 1 0.997563
1 1 1 1
1.00084 1 1.00105 0.999791
0.999189 1.00034 1 0.998853
0.999081 1.00013 1 0.998955
1.01669 1.0196 1 0.997146
1.00005 1 1.00068 0.999369
1.00936 1.01192 1 0.997472
1.00091 1.00318 1.00002 0.997719
1.01517 1.01839 1 0.996839
1.00121 1 1.00164 0.999574
1.00006 1 1.00017 0.999892
1.00362 1 1.00491 0.998715
1.01905 1.02207 1 0.997043
1.01452 1.01726 1 0.997306
1.0388 1.0424 1 0.996545
0.999986 1.00139 1.0006 0.998001
1.02417 1.02746 1 0.996798
1.00965 1.01217 1.00057 0.996941
1.02389 1.0273 1 0.996684
1 1 1 1
1 1 1 1
1 1 1 1
1.0008 1 1.00116 0.999643
1 1 1 1
1 1 1 1
1 1 1 1
0.998774 1.00006 1 0.998711
0.998686 1 1 0.998686
1 1 1 1
1 1 1 1
0.998667 1 1 0.998667
0.998796 1 1 0.998796
1.01623 1.01933 1 0.996958
0.998877 1.00015 1 0.998727
1.01894 1.02202 1 0.996991
0.998664 1 1 0.998664
1.01424 1.01737 1 0.996925
1.01744 1.02052 1 0.996986
1.04664 1.05025 1 0.996568
1.0193 1.02237 1 0.997
1.04797 1.05158 1 0.996569
1 1 1 1
0.999647 1 1 0.999647
0.998442 1 1 0.998442
0.998683 1 1 0.998683
1 1 1 1
0.999121 1 1 0.999121
0.998778 1 1 0.998778
1.01608 1.01889 1 0.997248
1.01483 1.01739 1 0.99749
1.01143 1.01382 1 0.997644
1.03214 1.03554 1 0.996716
0.998686 1 1 0.998686
0.998684 1 1 0.998684
1.01447 1.01745 1 0.997073
1.01622 1.01901 1 0.997253
1 1 1 1
0.999327 1 1.00011 0.999216
1.00699 1.00928 1 0.997737
1.01581 1.01853 1 0.997329
1.04114 1.04467 1 0.996621
1.02832 1.0317 1 0.996718
1.03566 1.03907 1 0.996712
1.03816 1.04171 1 0.996585
1.00122 1 1.00173 0.999488
1.00495 1 1.00653 0.998425
1.01397 1.01708 1 0.996946
1.015 1.01782 1 0.997222
1.04374 1.04727 1 0.996633
1.04175 1.04531 1 0.996599
1.03876 1.04219 1 0.996711
1.04875 1.05232 0.999893 0.996714
1.00049 1 1.00115 0.999337
1.04101 1.0445 1 0.996658
1.00121 1.00327 1.00011 0.997846
1.02154 1.02481 1 0.996804
1.03606 1.03968 1 0.996519
1.03891 1.04228 1 0.996765
1.00307 1.00017 1.00471 0.998194
1.0041 1 1.0054 0.998711
1.00326 1.00007 1.00546 0.997743
0.999116 1.00035 1 0.998769
1 1 1 1
1.00022 1 1.00041 0.999814
0.998987 1.0001 1 0.998885
1.01608 1.01899 1 0.997146
1.00023 1 1.00086 0.999373
0.99975 1.002 1.00004 0.997717
1.00807 1.01063 1 0.997475
1.01638 1.01961 1 0.996827
1.00108 1 1.00148 0.999596
0.999909 1 1 0.999909
1.0042 1 1.00549 0.998715
1.01853 1.02155 1 0.997041
1.01363 1.01636 1 0.99731
1.0389 1.04251 1 0.99654
0.999271 1.00078 1.00049 0.998005
1.02539 1.02868 1 0.996802
1.00896 1.01158 1.00047 0.996935
1.02464 1.02805 1 0.996678
0.999952 1 1 0.999952
1.00156 1.00024 1.003 0.99833
1.00232 1 1.00322 0.999109
1.00408 1.00011 1.00595 0.998034
1.0432 1.04685 1 0.996511
1.03291 1.03636 1 0.996666
1.04299 1.04667 1 0.996481
1.00424 1.0065 1.00049 0.997271
1.03076 1.03418 1 0.996697
1.01978 1.02163 1.00158 0.996618
1.03223 1.03576 1 0.996594
0.999678 1 1 0.999678
0.999991 1 1 0.999991
1 1 1 1
1 1 1 1
1 1 1 1
1 1 1.00023 0.999773
1 1 1 1
1.00123 1 1.00161 0.999628
1 1 1 1
0.998931 1.0002 1 0.998728
0.998702 1 1 0.998702
1.01919 1.02227 1 0.99699
1.0168 1.0199 1 0.996958
0.998669 1 1 0.998669
1 1 1 1
0.998663 1 1 0.998663
1.0146 1.01773 1 0.996925
1.01792 1.021 1 0.996986
1.04583 1.04943 1 0.996566
1.01924 1.02231 1 0.996997
1.04807 1.05168 1 0.996566
1.01374 1.01687 1 0.996922
1.04508 1.04871 1 0.99654
1.04747 1.05107 1 0.996581
1.05198 1.0572 0.998209 0.996846
1.04735 1.05099 1 0.996536
1.05441 1.05833 0.99954 0.99675
0.998684 1 1 0.998684
0.998678 1 1 0.998678
1.01438 1.01749 1 0.996948
1.0163 1.01908 1 0.997275
1 1 1 1
0.999261 1 1 0.999261
1.00833 1.01054 1 0.997814
1.01578 1.0185 1 0.997325
1.04099 1.04453 1 0.996606
1.03586 1.03924 1 0.996747
1.0278 1.0312 1 0.996711
1.03788 1.04142 1 0.996594
1.00129 1 1.00181 0.999477
1.00412 1 1.0057 0.998427
1.01386 1.01699 1 0.996927
1.01504 1.01788 1 0.997217
1.04362 1.04715 0.999973 0.996654
1.0418 1.04534 1 0.99661
1.00019 1 1.00087 0.999327
1.00251 1.00459 1.00008 0.997844
1.02099 1.02423 1 0.996837
1.03904 1.04249 1 0.996695
1.04892 1.05248 0.999864 0.996755
1.03572 1.03936 1 0.996499
1.04084 1.04432 1 0.996662
1.03913 1.04251 1 0.996763
1.00278 1.00025 1.00434 0.998196
1.00396 1.00029 1.00594 0.997746
1.00451 1 1.00581 0.998709
1.04336 1.04692 1 0.996601
1.04308 1.04657 1 0.996668
1.05184 1.05661 0.998693 0.996786
1.04994 1.05383 0.99956 0.996748
1.04402 1.04746 0.999979 0.996737
1.0447 1.05076 0.997183 0.99704
0.999376 1.00074 1.0006 0.998033
1.04111 1.04449 0.999873 0.996895
1.00967 1.01259 1 0.997113
1.02737 1.03108 1 0.996402
1.03528 1.03895 1 0.996473
1.0338 1.0369 0.999996 0.997015
1.00202 1 1.00304 0.998983
0.99928 1.00097 1.00067 0.99764
1.00836 1 1.01048 0.997904
1.00226 1.00211 1.00266 0.997493
1.01813 1.02116 1 0.997039
0.999926 1 1 0.999926
1.00111 1 1.00149 0.999618
1.00558 1 1.00687 0.998716
1.01267 1.0154 1 0.997313
1.03904 1.04265 1 0.996535
0.998669 1.00026 1.00041 0.998009
1.00835 1.01112 1.00033 0.996929
1.02657 1.02986 1 0.996806
1.02463 1.02806 1 0.996672
0.999962 1 1 0.999962
1.00241 1.00012 1.00397 0.998331
1.002 1 1.00289 0.999118
1.00472 1.00008 1.00662 0.998028
1.04311 1.04677 1 0.996505
1.03311 1.03657 1 0.996664
1.04256 1.04624 1 0.996478
1.0027 1.00499 1.00045 0.997277
1.03045 1.03386 1 0.996698
1.01923 1.02094 1.00173 0.996606
1.03197 1.03541 1 0.996674
0.99998 1 1 0.99998
1.00021 1 1.00082 0.999391
1.00147 1.00187 1.00191 0.997688
1.00526 1 1.00688 0.998393
1.00134 1.0004 1.00322 0.997727
1.04773 1.05137 1 0.996533
1.03675 1.04033 1 0.996559
1.03825 1.04179 1 0.996603
1.00788 1.00902 1.00199 0.996886
1.02926 1.03267 1 0.996692
1.01834 1.02116 1.00086 0.99638
0.999634 1 1 0.999634
0.999121 1 1 0.999121
0.999711 1 1 0.999711
0.99968 1 1 0.99968
0.999996 1 1 0.999996
0.999993 1 1 0.999993
1 1 1 1
1 1 1 1
1 1 1 1
0.99989 1 1 0.99989
1 1 1 1
1.00041 1 1.00065 0.999757
1 1 1 1
1.00126 1 1.00165 0.999614
1 1 1 1
1.01918 1.02225 1 0.996994
1.01834 1.02142 1 0.996985
1.04788 1.05149 1 0.996564
1.045 1.04861 1 0.996565
1.01502 1.01815 1 0.996926
0.998662 1 1 0.998662
1.01385 1.01698 1 0.996922
1.04473 1.04836 1 0.99654
1.04695 1.05055 1 0.996579
1.05229 1.0578 0.99792 0.996864
1.04664 1.05028 1 0.996532
1.05414 1.05799 0.999616 0.996748
1.04368 1.04731 1 0.996532
1.0514 1.05745 0.997403 0.996869
1.05362 1.05822 0.998831 0.996817
1.04844 1.05675 0.995041 0.997082
1.05102 1.05456 1 0.996648
1.05005 1.05768 0.995677 0.997094
1.01379 1.01694 1 0.996909
1.01511 1.01795 1 0.997212
1.04351 1.04704 0.99995 0.996675
1.04182 1.04535 1 0.996621
0.999883 1 1.00057 0.999316
1.00375 1.00588 1.00004 0.997842
1.02085 1.02405 1 0.996869
1.03934 1.0428 1 0.996678
1.0491 1.05266 0.999818 0.996795
1.04072 1.0442 1 0.996667
1.03523 1.03889 1 0.996478
1.03934 1.04272 1 0.99676
1.00217 1.00036 1.00362 0.998198
1.00454 1.00051 1.00629 0.997748
1.0047 1 1.006 0.998707
1.04343 1.04702 1 0.996576
1.04325 1.04674 0.999997 0.996666
1.0514 1.05634 0.998486 0.996828
1.04995 1.05392 0.999493 0.996732
1.00019 1.00142 1.00075 0.998031
1.01074 1.01367 1 0.997108
1.02609 1.02972 1.00003 0.996445
1.04412 1.04759 0.999981 0.996707
1.04441 1.05077 0.996846 0.99709
1.0359 1.0396 1 0.996436
1.04116 1.04453 0.999878 0.996898
1.03461 1.03768 0.999991 0.99705
1.00065 1.00184 1.00117 0.997641
1.00238 1.00216 1.00277 0.997461
1.00254 1 1.00357 0.998979
1.00772 1 1.0098 0.997944
1.05137 1.0565 0.998319 0.996818
1.05225 1.05676 0.998947 0.996781
1.04443 1.05266 0.99517 0.996996
1.04408 1.05325 0.994166 0.997115
1.04268 1.0468 0.999037 0.997025
1.04117 1.04972 0.994571 0.997273
1.00196 1.00455 1 0.997424
1.03561 1.04019 0.998343 0.997255
1.01469 1.01808 1 0.99667
1.02529 1.02901 1.00018 0.996203
1.03682 1.04051 1 0.996455
1.03543 1.03846 1 0.997084
0.999947 1 1.00074 0.999207
1.00776 1 1.00959 0.99819
1.00103 1.00368 1 0.997361
1.00421 1.00014 1.00645 0.997631
1.00282 1.00329 1.00217 0.997372
0.999971 1 1 0.999971
1.04292 1.04659 1 0.9965
1.00105 1 1.00192 0.999127
1.00315 1.00009 1.00473 0.998332
1.00507 1.00004 1.00702 0.998021
1.03335 1.03681 1 0.996663
1.04218 1.04587 1 0.996476
1.00139 1.00361 1.00051 0.997284
1.02001 1.02152 1.00193 0.996594
1.03027 1.03368 1 0.996699
1.0323 1.03566 1 0.996753
0.999984 1 1 0.999984
0.999876 1 1.00048 0.9994
1.00035 1.00132 1.00134 0.997691
1.00628 1 1.0079 0.998392
1.0016 1.00026 1.00363 0.997712
1.04761 1.05126 1 0.996527
1.03665 1.04024 1 0.996557
1.0383 1.04185 1 0.996591
1.00803 1.00903 1.00213 0.99689
1.03167 1.0351 1 0.996686
1.01864 1.02134 1.00096 0.996402
0.999552 1 1 0.999552
1.00165 1 1.0029 0.998747
1.00096 1.00315 1.00048 0.997347
1.00686 1.00027 1.00859 0.998021
1.00164 1.00194 1.00203 0.99767
1.04421 1.04764 1 0.996727
1.03267 1.03618 1 0.996616
1.03768 1.041 1 0.996812
1.00327 1.00278 1.00379 0.996708
1.01696 1.02071 1 0.996334
0.999637 1 1 0.999637
0.999042 1 1 0.999042
0.999096 1 1 0.999096
0.998844 1 1 0.998844
0.999142 1 1 0.999142
0.99973 1 1 0.99973
0.999713 1 1 0.999713
0.999999 1 1 0.999999
0.999682 1 1 0.999682
0.999997 1 1 0.999997
1 1 1 1
0.999994 1 1 0.999994
1 1 1 1
1 1 1 1
0.999967 1 1 0.999967
1 1 1.00013 0.999871
1 1 1 1
1 1 1 1
1.0008 1 1.00106 0.99974
1 1 1 1
1.04606 1.04971 1 0.996528
1.04666 1.05025 1 0.996577
1.0541 1.05787 0.999693 0.996746
1.05267 1.05846 0.99764 0.996882
1.04429 1.04792 1 0.99654
1.01389 1.01702 1 0.996922
1.04368 1.04731 1 0.996533
1.05129 1.05728 0.997465 0.996863
1.05393 1.05845 0.998904 0.996817
1.04763 1.05648 0.994496 0.997112
1.0518 1.05534 1 0.996641
1.05005 1.05754 0.995794 0.997116
1.05139 1.057 0.997845 0.996838
1.04636 1.0552 0.994544 0.997056
1.04859 1.05774 0.994174 0.997156
1.04718 1.05864 0.991919 0.997236
1.04951 1.05378 0.999009 0.996937
1.04701 1.05833 0.99196 0.997324
1.04341 1.04702 1 0.99655
1.04338 1.04687 1 0.996664
1.05092 1.05605 0.998267 0.99687
1.04983 1.0539 0.999422 0.996717
1.00104 1.00212 1.0009 0.998029
1.01113 1.01407 1 0.997103
1.02441 1.02784 1.00018 0.996488
1.04419 1.04767 1 0.996677
1.04412 1.05078 0.996512 0.99714
1.04112 1.04448 0.999883 0.9969
1.03643 1.04018 1 0.996398
1.0347 1.03772 1 0.997085
1.00192 1.0025 1.00179 0.997642
1.00236 1.00203 1.0029 0.99743
1.00296 1 1.00398 0.998975
1.00676 1 1.00879 0.997984
1.05121 1.05634 0.998318 0.996817
1.05173 1.05612 0.999087 0.99676
1.04458 1.0529 0.99505 0.997028
1.04474 1.05339 0.994676 0.997097
1.00279 1.00539 1 0.997416
1.01317 1.01648 1.00003 0.996713
1.02546 1.02898 1.00039 0.996192
1.0427 1.04659 0.999311 0.996977
1.04006 1.04898 0.994152 0.99733
1.03334 1.03703 1 0.99644
1.0365 1.04098 0.99844 0.997256
1.03609 1.03906 1 0.997143
1.00094 1.00359 1 0.99736
1.00254 1.00366 1.00152 0.997369
1.00516 1.00042 1.00713 0.997625
1.00039 1 1.00122 0.99917
1.00731 1 1.0091 0.998229
1.04497 1.05421 0.994182 0.997043
1.04521 1.05478 0.993837 0.997073
1.04078 1.05351 0.990574 0.997316
1.0368 1.04572 0.994123 0.997338
1.00512 1.00805 1 0.997094
1.04049 1.04517 0.998089 0.997433
1.00803 1.01136 1.00029 0.996418
1.02189 1.02547 1.00051 0.995999
1.0303 1.03398 1 0.996439
0.999394 1 1.00002 0.999376
1.00395 1 1.00542 0.998546
1.00598 1 1.00806 0.997938
1.00234 1.00511 1 0.997247
1.00386 1.00013 1.0064 0.997348
1.00339 1.00461 1.00157 0.997222
0.999988 1 1 0.999988
0.999573 1 1.00016 0.99941
1.04748 1.05114 1 0.996521
1.00755 1 1.00918 0.99839
0.998995 1.00056 1.00074 0.997694
1.00167 1.00007 1.0039 0.997696
1.0364 1.03998 1 0.996555
1.03824 1.04181 1 0.996579
1.00746 1.00829 1.00229 0.996894
1.01784 1.0207 1.00077 0.996424
1.03404 1.03748 1 0.996681
0.999558 1 1 0.999558
1.00157 1 1.00283 0.998751
1.00097 1.00322 1.00041 0.997344
1.00799 1.00009 1.0099 0.998014
1.00155 1.00215 1.00174 0.997671
1.04416 1.0476 1 0.996721
1.03318 1.0367 1 0.996604
1.03765 1.04094 1 0.996838
1.00424 1.00433 1.00324 0.996669
1.01579 1.0195 1.00006 0.996305
0.999147 1 1.00017 0.99898
1.00767 1 1.00937 0.998312
1.00236 1.00316 1.002 0.997215
1.00683 1.00216 1.00689 0.997791
1.00638 1.00785 1.001 0.997543
1.04265 1.04779 0.997875 0.997214
1.03256 1.03618 1 0.996512
1.03481 1.0381 1 0.996832
1.00639 1.00553 1.00433 0.996544
1.00684 1.01076 1 0.996115
0.99964 1 1 0.99964
0.999061 1 1 0.999061
0.998767 1 1 0.998767
0.999071 1 1 0.999071
0.999141 1 1 0.999141
0.998814 1 1 0.998814
0.998718 1 1 0.998718
0.998839 1 1.00008 0.998757
0.999159 1 1 0.999159
0.999723 1 1 0.999723
0.99973 1 1 0.99973
1 1 1 1
0.999715 1 1 0.999715
0.999999 1 1 0.999999
1 1 1 1
0.999998 1 1 0.999998
1 1 1 1
1 1 1 1
0.999995 1 1 0.999995
0.999951 1 1 0.999951
1 1 1 1
1.0003 1 1.00045 0.999851
1 1 1 1
1 1 1 1
1.05253 1.05608 1 0.996634
1.054 1.05845 0.998975 0.996816
1.05003 1.05735 0.995932 0.997138
1.04677 1.05618 0.993936 0.997143
1.05122 1.05714 0.997537 0.996858
1.04381 1.04744 1 0.996533
1.05132 1.05682 0.997969 0.996818
1.04691 1.05535 0.994942 0.997049
1.048 1.05721 0.994131 0.99714
1.04613 1.05821 0.991321 0.997248
1.0491 1.05314 0.999222 0.996938
1.04509 1.05718 0.99118 0.997364
1.04701 1.05513 0.995255 0.997031
1.0474 1.05976 0.991079 0.997232
1.04736 1.06041 0.990337 0.997336
1.04241 1.05431 0.991308 0.99739
1.05111 1.05624 0.998317 0.996817
1.05133 1.05559 0.999225 0.99674
1.04477 1.05315 0.994961 0.997061
1.04549 1.05364 0.995169 0.99708
1.00413 1.00673 1 0.997408
1.01236 1.01566 1 0.996756
1.02566 1.02899 1.00058 0.996182
1.04275 1.04641 0.999579 0.996927
1.03888 1.04819 0.993708 0.997387
1.0377 1.04211 0.998509 0.997257
1.03075 1.03445 1 0.996425
1.03838 1.04129 1 0.997202
1.00113 1.00378 1 0.997358
1.00295 1.0049 1.00069 0.997367
1.00655 1.00062 1.00833 0.997618
1.00075 1 1.00161 0.999135
1.00707 1 1.00882 0.998268
1.0454 1.05458 0.994233 0.997045
1.04573 1.05531 0.993839 0.997068
1.0406 1.05274 0.991137 0.997307
1.00517 1.00811 1 0.997088
1.00862 1.01194 1.00026 0.996461
1.02052 1.02385 1.00076 0.995987
1.03732 1.04591 0.994448 0.997324
1.03327 1.03685 1 0.996547
1.037 1.0419 0.997888 0.9974
0.999416 1 1.00001 0.999409
1.00281 1.00559 1 0.997238
1.00175 1.00371 1.0007 0.997349
1.00589 1.00118 1.00739 0.997338
1.00624 1 1.00829 0.997962
1.00398 1 1.00547 0.998511
1.04579 1.05785 0.991461 0.997122
1.0441 1.06005 0.98768 0.997241
1.03443 1.05112 0.986685 0.997399
1.03527 1.04848 0.98983 0.99754
1.00553 1.00866 1 0.996895
1.0323 1.03581 0.999615 0.997003
1.00411 1.00648 1.00165 0.996006
1.01181 1.01498 1.00104 0.995835
0.999641 1 1 0.999641
1.00027 1 1.00143 0.998841
1.0045 1 1.0063 0.998208
1.0062 1 1.0087 0.99752
1.00306 1.00468 1.00132 0.997066
1.0076 1.00219 1.00838 0.997045
0.999563 1 1 0.999563
1.00141 1 1.00266 0.998755
1.04434 1.04778 1 0.996714
1.00917 1 1.01118 0.998008
1.00099 1.00339 1.00027 0.997342
1.00102 1.00183 1.00152 0.997672
1.03391 1.03745 1 0.996592
1.03787 1.04113 1 0.996863
1.00564 1.00629 1.00273 0.996631
1.01467 1.01819 1.00027 0.996276
0.999032 1 1.00005 0.998983
1.00785 1 1.00956 0.998304
1.00297 1.00377 1.00198 0.997223
1.0059 1.00164 1.00647 0.997799
1.00663 1.00855 1.00048 0.99762
1.04378 1.04906 0.997699 0.99726
1.03214 1.03573 1 0.996533
1.03628 1.0395 1 0.996905
1.00637 1.00529 1.00458 0.996509
1.00714 1.01111 1.00003 0.996046
0.999736 1 1.00108 0.998653
1.00787 1 1.00996 0.997926
1.0077 1.00682 1.00378 0.997103
1.00564 1.00662 1.00161 0.997425
1.04044 1.06272 0.981474 0.997515
1.03709 1.04119 0.998767 0.997293
1.02022 1.02409 1 0.996223
1.00947 1.0091 1.00426 0.996127
0.999079 1 1 0.999079
0.99878 1 1 0.99878
0.998714 1 1 0.998714
0.999139 1 1 0.999139
0.998785 1 1 0.998785
0.999158 1 1 0.999158
0.998721 1 1 0.998721
0.998835 1 1.00007 0.998768
0.998746 1 1 0.998746
0.998881 1 1.00028 0.9986
0.998719 1 1 0.998719
0.999139 1 1 0.999139
0.999696 1 1 0.999696
0.999722 1 1 0.999722
1 1 1 1
0.99973 1 1 0.99973
1 1 1 1
1 1 1 1
1 1 1 1
1 1 1 1
1 1 1 1
1 1 1 1
0.999989 1 1 0.999989
1 1 1 1
0.999935 1 1 0.999935
1 1 1 1
1 1 1 1
1.04859 1.0524 0.999443 0.996939
1.04749 1.05679 0.994064 0.997124
1.04327 1.05612 0.990398 0.997404
1.04515 1.05785 0.990713 0.997259
1.04749 1.05552 0.995335 0.997042
1.05117 1.05658 0.998074 0.996799
1.04677 1.05502 0.995136 0.997031
1.04729 1.05944 0.991281 0.997223
1.04614 1.05959 0.989947 0.997335
1.04371 1.05524 0.991646 0.9974
1.04848 1.05981 0.992107 0.997177
1.04912 1.06626 0.986503 0.997386
1.04772 1.0655 0.985825 0.997456
1.04581 1.05496 0.994265 0.997047
1.04618 1.05577 0.993838 0.997063
1.04054 1.05198 0.991806 0.997299
1.00481 1.00775 1 0.997083
1.00862 1.01198 1.00018 0.996503
1.01879 1.02204 1.00085 0.995975
1.03786 1.04611 0.99479 0.99731
1.03289 1.03805 0.997657 0.997368
1.0347 1.03818 1 0.996654
1.00179 1.00445 1.00012 0.997228
0.998523 1.00105 1 0.997476
1.00712 1.00171 1.00809 0.997329
0.99945 1 1.00001 0.999444
1.00565 1 1.00768 0.997986
1.0041 1 1.00563 0.998476
1.04657 1.05838 0.991689 0.99713
1.04352 1.05978 0.987369 0.997248
1.03463 1.05072 0.987261 0.997391
1.00304 1.00617 1 0.996887
1.00419 1.00673 1.0014 0.996085
1.01203 1.01527 1.0009 0.995912
1.03547 1.04821 0.99028 0.997544
1.02971 1.03382 0.999046 0.996983
0.999702 1 1 0.999702
1.00031 1 1.00147 0.998839
1.00035 1.00303 1.00021 0.997114
1.00936 1.00166 1.01052 0.997194
1.00573 1.00002 1.00817 0.997565
1.00446 1 1.0063 0.998174