# vtk DataFile Version 2.0
Wound Healing Simulation
ASCII
DATASET UNSTRUCTURED_GRID
POINTS 3012 float
69.9759 18.75 4
67.2507 60.3285 4
69.976 18.75 2
73.0099 25.446 4
71.1327 20.9142 4
68.6801 16.6661 4
67.8187 19.9236 3.96869
67.2507 60.3286 2
71.1327 54.0858 4
68.6801 58.3339 4
65.6939 62.2254 4
65.3048 58.9999 3.96772
74.6784 42.3946 4
73.7221 47.2057 4
69.9759 18.75 0
73.0099 25.446 2
68.6801 16.6661 2
71.1327 20.9142 2
67.8192 19.9282 2
74.6792 32.6053 4
73.7222 27.7943 4
72.1454 23.1494 4
70.6102 26.2216 3.97045
68.8798 21.9562 3.96923
67.2507 14.6715 4
66.6292 17.9702 3.96762
65.6781 21.0665 3.96048
67.2507 60.3285 0
71.1327 54.0858 2
68.6801 58.3339 2
65.694 62.2255 2
65.3064 58.9936 2
72.1454 51.8506 4
69.9759 56.25 4
68.8303 53.1152 3.96905
64.0165 64.0165 4
66.6032 57.1347 3.96841
63.8778 60.7611 3.96339
63.4004 57.7265 3.95667
60.3285 67.2507 4
74.6792 42.3947 2
73.7222 47.2057 2
74.9194 39.9526 4
74.2788 44.8158 4
72.1652 42.0858 3.97304
73.0099 49.554 4
71.2457 46.5983 3.97135
73.0099 25.446 0
71.1327 20.9142 0
68.6801 16.6661 0
67.8187 19.9236 0.0313062
74.6792 32.6053 2
73.7222 27.7943 2
67.2508 14.6715 2
72.1455 23.1494 2
70.6094 26.223 2
66.6306 17.9755 2
68.8798 21.9595 2
65.68 21.0677 2
74.9197 35.0474 4
74.2794 30.1841 4
72.1819 32.945 3.97317
71.2749 28.4328 3.97118
69.8107 24.0591 3.9697
68.2639 26.976 3.96444
66.658 22.968 3.96265
65.694 12.7746 4
65.3155 16.1037 3.9668
64.584 19.2422 3.95785
63.6017 22.1483 3.96749
71.1327 54.0858 0
65.6939 62.2254 0
68.6801 58.3339 0
65.3048 58.9999 0.0322793
72.1455 51.8506 2
69.9759 56.25 2
68.8304 53.1115 2
64.0165 64.0165 2
66.6046 57.1289 2
63.8791 60.7536 2
63.3932 57.7256 2
62.2254 65.694 4
58.8873 65.4092 3.97278
69.7638 50.9903 3.96974
67.7768 55.1696 3.96883
66.5344 52.1733 3.96303
62.3284 62.4222 3.96631
64.5401 55.987 3.95904
62.1513 59.3613 3.95224
61.576 56.5585 3.96199
58.3339 68.6801 4
60.3285 67.2508 2
73.7221 47.2057 0
74.6784 42.3946 0
74.9197 39.9526 2
74.2794 44.8159 2
72.164 42.0847 2
73.0099 49.554 2
71.2448 46.5966 2
75 37.5 4
72.4025 39.8027 3.97392
71.7792 44.353 3.97238
69.7668 41.7848 3.96842
70.5709 48.8142 3.97064
68.8398 45.9983 3.96734
74.6792 32.6053 0
73.7222 27.7943 0
67.2507 14.6715 0
72.1454 23.1494 0
70.6102 26.2216 0.0295531
68.8798 21.9562 0.0307692
66.6292 17.9702 0.032382
65.6781 21.0665 0.0395218
74.9197 35.0474 2
74.2794 30.1841 2
72.1806 32.9452 2
71.2738 28.4338 2
65.694 12.7745 2
65.3165 16.1103 2
69.8102 24.0613 2
68.2663 26.9769 2
64.578 19.2447 2
66.6602 22.9693 2
63.6019 22.1491 2
72.4104 35.2255 3.97398
71.8008 30.678 3.97255
69.8023 33.2778 3.96783
68.8981 29.0573 3.96575
67.5168 24.9416 3.96358
65.9069 27.7142 3.97538
64.0165 10.9835 4
64.467 23.9327 3.97098
63.8804 14.3312 3.963
63.3929 17.4965 3.95443
62.6312 20.4424 3.9643
61.6412 23.1311 3.97396
60.6764 11.1059 3.96786
57.5999 11.509 3.96306
72.1454 51.8506 0
69.9759 56.25 0
68.8303 53.1152 0.0309462
64.0165 64.0165 0
63.8778 60.7611 0.0366119
66.6032 57.1347 0.0315854
63.4004 57.7265 0.0433259
62.2255 65.694 2
58.8911 65.4026 2
69.7635 50.9876 2
67.7775 55.1646 2
66.5353 52.1721 2
62.331 62.4126 2
64.5334 55.9852 2
62.1462 59.3612 2
61.5825 56.5606 2
60.6614 63.9701 3.9668
57.0188 66.7282 3.97295
57.5418 63.6336 3.9671
67.3987 50.1459 3.96428
65.584 54.1332 3.96134
64.2251 51.2788 3.97213
60.7516 60.8909 3.95324
62.5432 54.9491 3.96629
60.4117 58.0233 3.95742
59.9499 55.5982 3.96835
56.25 69.9759 4
58.3339 68.6801 2
60.3285 67.2507 0
58.9158 9.66467 3.96955
62.2254 9.30607 4
73.0099 49.554 0
74.2788 44.8158 0
71.2457 46.5983 0.0286522
72.1652 42.0858 0.0269626
74.9194 39.9526 0
75 37.5 2
72.4017 39.802 2
71.7785 44.3515 2
69.768 41.7843 2
70.5704 48.8122 2
68.8423 45.9975 2
72.486 37.513 3.97381
70.0128 39.6564 3.96839
69.3806 43.8977 3.96825
67.324 41.4694 3.97659
68.1715 48.083 3.96572
66.4047 45.376 3.97627
74.9197 35.0474 0
74.2794 30.1841 0
72.1819 32.945 0.0268345
71.2749 28.4328 0.028824
65.694 12.7746 0
65.3155 16.1037 0.0332042
69.8107 24.0591 0.0303016
68.2639 26.976 0.0355645
66.658 22.968 0.0373469
64.584 19.2422 0.0421459
63.6017 22.1483 0.0325125
72.4096 35.2252 2
71.8 30.6788 2
69.8044 33.2782 2
68.9014 29.0579 2
64.0165 10.9835 2
63.8826 14.3386 2
63.4068 17.4932 2
67.5193 24.9427 2
65.9039 27.7158 2
62.6383 20.4416 2
64.4659 23.934 2
61.6419 23.1331 2
60.6792 11.1118 2
57.5962 11.4972 2
70.0263 35.3977 3.96802
69.4171 31.1631 3.96691
67.3899 33.6242 3.97643
66.4867 29.6889 3.9764
65.2385 25.7905 3.97376
63.6527 28.3841 3.97542
62.3326 12.6605 3.96607
62.3876 24.8129 3.97419
62.148 15.8255 3.95255
61.5403 18.8189 3.96044
60.7842 21.541 3.97063
59.83 23.9872 3.97398
59.229 12.8336 3.95801
55.866 10.2903 3.96981
56.3659 13.2157 3.96036
69.7638 50.9903 0.0302622
62.2254 65.694 0
58.8873 65.4092 0.0272175
67.7768 55.1696 0.0311706
66.5344 52.1733 0.0369662
62.3284 62.4222 0.0336912
62.1513 59.3613 0.0477573
64.5401 55.987 0.040961
61.576 56.5585 0.0380096
60.6656 63.9626 2
57.0228 66.7222 2
57.5462 63.6447 2
67.3995 50.1447 2
65.5826 54.1319 2
64.2238 51.2782 2
60.7426 60.8942 2
62.5477 54.9506 2
60.4106 58.0233 2
59.9473 55.5969 2
55.0648 67.9297 3.98054
59.2076 62.3031 3.97026
55.7831 64.8435 3.96693
56.2994 61.9974 3.97969
65.0118 49.3127 3.97413
63.3999 53.1767 3.96895
61.9204 50.469 3.97346
59.1861 59.4377 3.95421
60.6464 54.1193 3.97232
58.8633 56.7963 3.95983
58.7491 54.9466 3.97095
48.0959 68.5659 3.97752
50.9432 69.9294 3.98419
54.0858 71.1327 4
56.25 69.976 2
58.3339 68.6801 0
57.0547 8.33931 3.97703
60.3285 7.74928 4
58.9183 9.67032 2
62.2255 9.30602 2
70.5709 48.8142 0.0293578
71.7792 44.353 0.0276162
68.8398 45.9983 0.0326627
69.7668 41.7848 0.0315846
72.4025 39.8027 0.0260836
75 37.5 0
72.4847 37.5124 2
70.0146 39.6561 2
69.3811 43.897 2
67.3207 41.469 2
68.1712 48.0818 2
66.4008 45.3751 2
70.1009 37.5239 3.96827
67.5714 39.5009 3.97654
66.9349 43.4248 3.97645
65.099 41.1695 3.97616
65.7487 47.3367 3.97581
64.1529 44.7574 3.97559
72.4104 35.2255 0.0260156
71.8008 30.678 0.0274495
69.8023 33.2778 0.0321697
68.8981 29.0573 0.0342491
64.0165 10.9835 0
63.8804 14.3312 0.0370023
63.3929 17.4965 0.0455678
67.5168 24.9416 0.0364222
65.9069 27.7142 0.024623
64.467 23.9327 0.0290219
62.6312 20.4424 0.0356986
61.6412 23.1311 0.0260371
60.6764 11.1059 0.0321435
57.5999 11.509 0.0369426
70.0282 35.3979 2
69.4195 31.1636 2
67.3871 33.6247 2
66.4832 29.6904 2
62.3357 12.6675 2
62.1558 15.8262 2
61.5477 18.8183 2
65.2363 25.7921 2
63.6517 28.3846 2
60.7849 21.5431 2
62.3867 24.8145 2
59.8278 23.9894 2
59.2263 12.828 2
56.3613 13.2087 2
55.8661 10.2931 2
67.6129 35.5662 3.97659
66.9893 31.6731 3.97646
65.2568 33.9749 3.97628
64.1759 30.2949 3.9755
63.0541 26.5709 3.97454
61.5928 28.9544 3.975
60.7478 14.2684 3.95238
60.4135 25.5762 3.97423
60.3736 17.2664 3.95824
59.7824 20.0346 3.96582
59.0793 22.5315 3.97214
58.2527 24.6403 3.9739
54.038 9.16165 3.98391
57.8247 14.4483 3.95213
54.7665 12.1238 3.9717
55.2128 14.8097 3.95325
67.3987 50.1459 0.0357231
57.0188 66.7282 0.0270496
60.6614 63.9701 0.0331994
57.5418 63.6336 0.0328963
65.584 54.1332 0.0386579
64.2251 51.2788 0.0278678
60.7516 60.8909 0.0467608
60.4117 58.0233 0.0425827
62.5432 54.9491 0.0337147
59.9499 55.5982 0.0316457
55.0699 67.9237 2
59.2038 62.3095 2
55.7872 64.8378 2
56.2964 62.0016 2
65.0096 49.3116 2
63.4001 53.1768 2
61.9197 50.4685 2
59.211 59.4462 2
60.6455 54.1184 2
58.8724 56.7981 2
58.7576 54.9476 2
53.0366 68.9954 3.98092
53.9507 65.9744 3.96908
57.8134 60.7822 3.94952
54.6483 63.0882 3.96585
55.1475 60.5023 3.97486
62.6614 48.5003 3.97413
61.2596 52.3833 3.97304
59.5563 49.7591 3.97277
57.723 58.0775 3.95628
58.776 53.6963 3.97261
57.5397 55.5341 3.9627
50.1004 67.8428 3.97317
47.4491 66.5515 3.97376
46.0512 69.1464 3.98025
48.1005 68.5662 2
48.7975 70.7207 3.98684
50.9487 69.926 2
51.8506 72.1454 4
54.0858 71.1327 2
56.25 69.9759 0
55.101 7.14224 3.99031
58.3339 6.31992 4
57.0582 8.34413 2
60.3286 7.74926 2
58.9158 9.66467 0.0304475
62.2254 9.30607 0
68.1715 48.083 0.0342808
69.3806 43.8977 0.03175
66.4047 45.376 0.023734
67.324 41.4694 0.0234069
70.0128 39.6564 0.031607
72.486 37.513 0.0261874
70.1037 37.5239 2
67.5679 39.5006 2
66.9324 43.4236 2
65.0988 41.1693 2
65.7459 47.3354 2
64.1526 44.7574 2
67.6743 37.5261 3.97648
65.341 39.3522 3.97635
64.7036 42.9575 3.97603
63.1361 40.8736 3.97631
63.4385 46.5917 3.97469
62.1305 44.0965 3.9757
70.0263 35.3977 0.0319779
69.4171 31.1631 0.0330884
67.3899 33.6242 0.0235725
66.4867 29.6889 0.0236012
62.3326 12.6605 0.033933
62.148 15.8255 0.0474512
61.5403 18.8189 0.0395634
65.2385 25.7905 0.0262383
63.6527 28.3841 0.0245759
62.3876 24.8129 0.0258076
60.7842 21.541 0.0293722
59.83 23.9872 0.0260222
59.229 12.8336 0.0419872
56.3659 13.2157 0.0396422
55.866 10.2903 0.0301925
67.61 35.5665 2
66.9866 31.6743 2
65.2558 33.9752 2
64.1756 30.2951 2
60.7438 14.2686 2
60.3678 17.2688 2
59.7807 20.0375 2
63.053 26.5718 2
61.5928 28.9545 2
59.0793 22.5341 2
60.4128 25.5767 2
58.248 24.6431 2
57.8224 14.4374 2
55.1987 14.7921 2
54.0409 9.1546 2
54.7565 12.1176 2
65.4399 35.6937 3.9763
64.7145 32.2259 3.97565
63.721 34.3058 3.97608
61.9187 30.7741 3.97534
60.9938 27.2763 3.97458
60.0516 29.3521 3.97541
59.1427 15.8015 3.95479
58.5465 26.0916 3.97473
58.7096 18.5823 3.96038
58.1601 21.1446 3.96736
57.5882 23.4266 3.97259
57.165 25.0192 3.97475
52.1044 8.18818 3.96624
53.0519 11.0758 3.96655
56.497 15.9249 3.95608
53.7503 13.8164 3.95601
54.1884 16.2013 3.95592
55.0648 67.9297 0.0194585
65.0118 49.3127 0.0258682
55.7831 64.8435 0.0330702
59.2076 62.3031 0.0297422
56.2994 61.9974 0.0203107
63.3999 53.1767 0.0310463
61.9204 50.469 0.0265371
59.1861 59.4377 0.0457918
58.8633 56.7963 0.0401682
60.6464 54.1193 0.027684
58.7491 54.9466 0.0290496
53.0424 68.9916 2
53.955 65.9702 2
57.8153 60.7932 2
54.6442 63.0851 2
55.1445 60.5039 2
62.6608 48.4998 2
61.2594 52.3827 2
59.5563 49.7587 2
57.726 58.0789 2
58.7802 53.6957 2
57.5365 55.5312 2
52.058 66.9744 3.97253
52.925 64.1296 3.9676
56.4757 59.3352 3.95303
53.6076 61.4542 3.9651
[...]
POINT_DATA 3012
SCALARS rho_c_phif_kappa float 4
LOOKUP_TABLE default
1000 0 1.00261 0.275783
1000 0 1.00207 0.276099
1000 0 1.0026 0.276132
1000 0 1.0026 0.276442
1000 0 1.0026 0.275989
1000 0 1.00261 0.275638
1012.49 1.36245e-08 1.0031 0.27309
1000 0 1.00207 0.276068
1000 0 1.00207 0.27725
1000 0 1.00207 0.276739
1000 0 1.00261 0.2755
1012.42 1.33332e-08 1.00336 0.272391
1000 0 1.00259 0.277155
1000 0 1.00259 0.278113
1000 0 1.0026 0.276477
1000 0 1.0026 0.277157
1000 0 1.00261 0.275899
1000 0 1.0026 0.276469
1012.3 1.36748e-08 1.0031 0.272902
1000 0 1.00206 0.277135
1000 0 1.0026 0.276588
1000 0 1.0026 0.276227
1012.45 1.38115e-08 1.00309 0.275298
1012.47 1.36983e-08 1.0031 0.273923
1000 0 1.00261 0.275575
1012.51 1.35554e-08 1.00311 0.272145
1014.12 1.6121e-08 1.00361 0.265474
1000 0 1.00207 0.276056
1000 0 1.00233 0.276729
1000 0 1.00233 0.27627
1000 0 1.00207 0.276088
1012.35 1.33926e-08 1.00336 0.272441
1000 0 1.0026 0.276398
1000 0 1.0026 0.27582
1012.49 1.3727e-08 1.00309 0.273218
1000 0 1.00207 0.276968
1012.42 1.34446e-08 1.00309 0.272455
1012.48 1.32861e-08 1.00337 0.272497
1014.11 1.60259e-08 1.00363 0.262573
1000 0 1.00207 0.277423
1000 0 1.00206 0.277162
1000 0 1.00233 0.277558
1000 0 1.00206 0.27723
1000 0 1.0026 0.278291
1012.42 1.38508e-08 1.00334 0.275602
1000 0 1.00206 0.2779
1012.49 1.38857e-08 1.00308 0.274876
1000 0 1.00259 0.277889
1000 0 1.0026 0.276949
1000 0 1.00261 0.27615
1012.49 1.36245e-08 1.0031 0.272754
1000 0 1.00233 0.277544
1000 0 1.00259 0.277363
1000 0 1.00261 0.275771
1000 0 1.0026 0.276839
1012.17 1.38559e-08 1.00309 0.274935
1012.38 1.36086e-08 1.00311 0.271935
1012.23 1.37448e-08 1.0031 0.27366
1014.14 1.61152e-08 1.00361 0.265365
1000 0 1.00206 0.277222
1000 0 1.0026 0.276708
1012.4 1.38175e-08 1.00307 0.276063
1012.45 1.38361e-08 1.00309 0.275694
1012.46 1.37645e-08 1.00309 0.27468
1014.1 1.61501e-08 1.0036 0.269527
1014.11 1.61334e-08 1.0036 0.266307
1000 0 1.00262 0.275664
1012.57 1.35006e-08 1.00311 0.271359
1014.14 1.61076e-08 1.00362 0.26385
1014.08 1.61498e-08 1.00361 0.257395
1000 0 1.00207 0.276378
1000 0 1.00207 0.276321
1000 0 1.00207 0.276076
1012.42 1.33332e-08 1.00336 0.272488
1000 0 1.00207 0.276607
1000 0 1.00207 0.276211
1012.26 1.37734e-08 1.00336 0.273451
1000 0 1.00234 0.276473
1012.29 1.3499e-08 1.00336 0.272618
1012.45 1.33554e-08 1.00324 0.272476
1014.13 1.60273e-08 1.00363 0.262575
1000 0 1.00207 0.276888
1012.82 1.33593e-08 1.00342 0.274085
1012.51 1.3824e-08 1.00336 0.274023
1012.45 1.35903e-08 1.00336 0.272964
1014.12 1.61425e-08 1.00362 0.26606
1012.56 1.32774e-08 1.00311 0.272672
1014.11 1.60654e-08 1.00363 0.263398
1014.15 1.60094e-08 1.00364 0.263067
1014.11 1.61747e-08 1.00362 0.25604
1000 0 1.00207 0.277887
1000 0 1.00207 0.277682
1000 0 1.00207 0.276913
1000 0 1.00206 0.277135
1000 0 1.00206 0.277209
1000 0 1.00233 0.277682
1012.05 1.38919e-08 1.00321 0.275532
1000 0 1.00233 0.277336
1012.24 1.39296e-08 1.00322 0.27512
1000 0 1.00206 0.277227
1012.4 1.3823e-08 1.00334 0.275847
1012.48 1.38736e-08 1.00308 0.275165
1014.08 1.61436e-08 1.00361 0.271814
1012.51 1.38753e-08 1.00308 0.27453
1014.11 1.61656e-08 1.00361 0.270781
1000 0 1.00259 0.27711
1000 0 1.00259 0.278171
1000 0 1.00262 0.275957
1000 0 1.00259 0.277452
1012.45 1.38115e-08 1.00309 0.274583
1012.47 1.36983e-08 1.0031 0.273409
1012.51 1.35554e-08 1.00311 0.27156
1014.12 1.6121e-08 1.00362 0.265207
1000 0 1.00206 0.27719
1000 0 1.0026 0.277478
1012.04 1.38595e-08 1.00321 0.275611
1012.17 1.38807e-08 1.00309 0.275344
1000 0 1.00234 0.275658
1012.49 1.35627e-08 1.00311 0.271586
1012.2 1.38094e-08 1.00309 0.274347
1014.12 1.61423e-08 1.0036 0.26943
1014.15 1.61062e-08 1.00362 0.263332
1014.13 1.61266e-08 1.00361 0.266502
1014.08 1.61514e-08 1.00361 0.257419
1012.37 1.38076e-08 1.00333 0.275864
1012.44 1.38359e-08 1.00309 0.275867
1014.07 1.61335e-08 1.00359 0.271605
1014.09 1.61512e-08 1.0036 0.270371
1014.1 1.61443e-08 1.0036 0.267891
1014.07 1.61342e-08 1.00361 0.264185
1000 0 1.00207 0.276438
1014.08 1.61411e-08 1.00361 0.258944
1012.62 1.34685e-08 1.00339 0.271873
1014.15 1.60946e-08 1.00363 0.261243
1014.1 1.61622e-08 1.00361 0.256021
1014.01 1.6062e-08 1.0036 0.25425
1012.77 1.34513e-08 1.00341 0.272765
1014.32 1.61522e-08 1.00366 0.26925
1000 0 1.00207 0.27658
1000 0 1.00207 0.2762
1012.49 1.3727e-08 1.00335 0.273454
1000 0 1.00207 0.27675
1012.48 1.32861e-08 1.00337 0.272496
1012.42 1.34446e-08 1.00336 0.272647
1014.11 1.60259e-08 1.00363 0.262611
1000 0 1.00207 0.27711
1012.9 1.34145e-08 1.00342 0.274346
1012.26 1.3868e-08 1.00322 0.273918
1012.26 1.36401e-08 1.00322 0.272862
1014.14 1.61359e-08 1.00362 0.266074
1012.56 1.3352e-08 1.00339 0.272667
1014.13 1.60645e-08 1.00363 0.263505
1014.15 1.6009e-08 1.00364 0.263331
1014.11 1.61772e-08 1.00362 0.255672
1012.65 1.33135e-08 1.0034 0.273211
1012.93 1.3408e-08 1.00343 0.275019
1014.34 1.61296e-08 1.00366 0.271626
1014.12 1.61631e-08 1.00362 0.267628
1014.11 1.61082e-08 1.00362 0.264729
1014.07 1.61268e-08 1.0036 0.258768
1014.21 1.60433e-08 1.00365 0.265317
1014.09 1.6155e-08 1.00361 0.255199
1014.12 1.61837e-08 1.00362 0.255483
1014.04 1.6104e-08 1.00361 0.253595
1000 0 1.00207 0.278183
1000 0 1.00207 0.278031
1000 0 1.00207 0.277851
1012.89 1.34749e-08 1.00342 0.273904
1000 0 1.00208 0.276923
1000 0 1.00207 0.276767
1000 0 1.00206 0.277044
1012.49 1.38857e-08 1.00335 0.275397
1012.42 1.38508e-08 1.00334 0.275851
1000 0 1.00206 0.277226
1000 0 1.00206 0.277234
1012.27 1.38617e-08 1.00334 0.275868
1012.37 1.39141e-08 1.00321 0.275417
1014.12 1.61364e-08 1.00361 0.271823
1012.23 1.39184e-08 1.00335 0.274828
1014.13 1.6157e-08 1.00361 0.270709
1012.35 1.38009e-08 1.00333 0.275871
1014.07 1.61316e-08 1.00361 0.272161
1014.1 1.61537e-08 1.00361 0.271404
1014.07 1.61332e-08 1.0036 0.268674
1014.11 1.61695e-08 1.00362 0.269352
1014.07 1.61314e-08 1.0036 0.265909
1000 0 1.00206 0.277212
1000 0 1.00259 0.278304
1012.4 1.38175e-08 1.00335 0.275579
1012.45 1.38361e-08 1.00309 0.275005
1000 0 1.00207 0.276409
1012.57 1.35006e-08 1.00311 0.271899
1012.46 1.37645e-08 1.00309 0.274031
1014.1 1.61501e-08 1.0036 0.269313
1014.11 1.61334e-08 1.00361 0.266682
1014.14 1.61076e-08 1.00362 0.263023
1014.08 1.61498e-08 1.00361 0.257452
1012.23 1.38464e-08 1.00333 0.275856
1012.34 1.38772e-08 1.00309 0.275555
1014.11 1.61262e-08 1.0036 0.271464
1014.12 1.61428e-08 1.0036 0.270503
1000 0 1.00207 0.276278
1012.59 1.35399e-08 1.00325 0.272046
1014.16 1.60878e-08 1.00363 0.261538
1014.13 1.61367e-08 1.0036 0.26781
1014.07 1.61352e-08 1.0036 0.263848
1014.09 1.61625e-08 1.00361 0.256078
1014.07 1.61424e-08 1.00361 0.259225
1014.01 1.60616e-08 1.0036 0.254299
1012.82 1.35102e-08 1.00341 0.272719
1014.3 1.61395e-08 1.00366 0.269203
1014.07 1.61275e-08 1.00361 0.272168
1014.09 1.6145e-08 1.0036 0.270998
1014.07 1.61372e-08 1.00361 0.268466
1014.07 1.61331e-08 1.0036 0.265319
1014.07 1.61366e-08 1.00361 0.261358
1014 1.60478e-08 1.00359 0.260884
1012.69 1.34478e-08 1.0034 0.272065
1014 1.60533e-08 1.0036 0.255886
1014.19 1.60846e-08 1.00364 0.262653
1014.1 1.6168e-08 1.00361 0.254035
1014.02 1.60756e-08 1.0036 0.253121
1013.99 1.60392e-08 1.00359 0.253015
1014.27 1.61245e-08 1.00365 0.267379
1014.37 1.61947e-08 1.00366 0.270919
1014.2 1.62895e-08 1.00364 0.265046
1012.51 1.3824e-08 1.00335 0.274102
1000 0 1.00207 0.277428
1012.82 1.33593e-08 1.00342 0.274779
1012.45 1.35903e-08 1.00336 0.272965
1014.12 1.61425e-08 1.00362 0.266089
1012.56 1.32774e-08 1.00339 0.272588
1014.15 1.60094e-08 1.00364 0.263536
1014.11 1.60654e-08 1.00363 0.263662
1014.11 1.61747e-08 1.00362 0.255278
1012.73 1.33704e-08 1.0034 0.27337
1013.03 1.34569e-08 1.00343 0.27539
1014.33 1.61186e-08 1.00366 0.271741
1014.14 1.61561e-08 1.00362 0.267636
1014.13 1.61036e-08 1.00362 0.264801
1014.07 1.61285e-08 1.0036 0.258746
1014.22 1.60441e-08 1.00364 0.265839
1014.09 1.61562e-08 1.00361 0.255414
1014.11 1.61834e-08 1.00362 0.255413
1014.04 1.61043e-08 1.00361 0.253152
1013.09 1.34623e-08 1.00344 0.275939
1014.27 1.60923e-08 1.00365 0.269261
1014.37 1.61588e-08 1.00366 0.272904
1014.23 1.63191e-08 1.00364 0.26815
1014.06 1.61165e-08 1.0036 0.260789
1014.08 1.614e-08 1.00361 0.256822
1014 1.60688e-08 1.00359 0.255271
1014.14 1.6211e-08 1.00363 0.257984
1014.01 1.60712e-08 1.0036 0.251112
1014.03 1.60931e-08 1.00361 0.251832
1014.03 1.60931e-08 1.0036 0.252706
1014.43 1.62237e-08 1.00367 0.27655
1013.29 1.35584e-08 1.00346 0.27653
1000 0 1.00208 0.278321
1000 0 1.00207 0.278279
1000 0 1.00207 0.278177
1013 1.35285e-08 1.00344 0.274751
1000 0 1.00208 0.277427
1012.97 1.3534e-08 1.00342 0.273527
1000 0 1.00207 0.276731
1012.51 1.38753e-08 1.00335 0.274818
1012.48 1.38736e-08 1.00335 0.275709
1014.11 1.61656e-08 1.00361 0.270632
1014.08 1.61436e-08 1.00361 0.271797
1012.4 1.3823e-08 1.00333 0.275891
1000 0 1.00206 0.277225
1011.94 1.38426e-08 1.00333 0.275865
1014.08 1.6125e-08 1.00361 0.272159
1014.1 1.61468e-08 1.00361 0.27136
1014.07 1.6134e-08 1.0036 0.268654
1014.14 1.61626e-08 1.00362 0.269367
1014.07 1.61325e-08 1.0036 0.265974
1014.06 1.61261e-08 1.00361 0.272279
1014.07 1.61292e-08 1.0036 0.269189
1014.07 1.61341e-08 1.0036 0.267759
1014.01 1.60788e-08 1.00359 0.266777
1014.07 1.61252e-08 1.0036 0.263458
1014 1.60621e-08 1.00359 0.2638
1012.37 1.38076e-08 1.00333 0.275836
1012.44 1.38359e-08 1.00309 0.27519
1014.07 1.61335e-08 1.00361 0.271348
1014.09 1.61512e-08 1.00361 0.270581
1000 0 1.00207 0.276094
1012.62 1.34685e-08 1.00311 0.271822
1014.15 1.60946e-08 1.00363 0.261872
1014.1 1.61443e-08 1.0036 0.267707
1014.07 1.61342e-08 1.0036 0.263516
1014.08 1.61411e-08 1.00361 0.259507
1014.1 1.61622e-08 1.00361 0.256094
1014.01 1.6062e-08 1.0036 0.254328
1012.77 1.34513e-08 1.00341 0.272623
1014.32 1.61522e-08 1.00366 0.268762
1014.07 1.6121e-08 1.00361 0.271987
1014.09 1.61379e-08 1.0036 0.271038
1014.07 1.61381e-08 1.0036 0.26836
1014.07 1.61341e-08 1.0036 0.265648
1012.68 1.35149e-08 1.0034 0.27216
1014.2 1.60764e-08 1.00364 0.262405
1014.1 1.61719e-08 1.00362 0.25408
1014.07 1.61377e-08 1.00361 0.261531
1014 1.60475e-08 1.00359 0.260562
1014.02 1.60758e-08 1.0036 0.252949
1014 1.60531e-08 1.0036 0.255922
1013.99 1.6039e-08 1.00359 0.252725
1014.27 1.61219e-08 1.00365 0.267434
1014.19 1.62899e-08 1.00364 0.264908
1014.35 1.61961e-08 1.00366 0.270838
1014.07 1.61331e-08 1.0036 0.269335
1014.07 1.61333e-08 1.0036 0.267058
1014.01 1.6069e-08 1.00359 0.266793
1014 1.60494e-08 1.00359 0.262603
1014 1.60477e-08 1.00359 0.257588
1013.98 1.60233e-08 1.00359 0.258168
1014.23 1.61029e-08 1.00365 0.265434
1013.98 1.60285e-08 1.00359 0.253617
1014.11 1.61826e-08 1.00362 0.25417
1014.02 1.60797e-08 1.0036 0.249406
1014 1.6057e-08 1.0036 0.251284
1013.96 1.59818e-08 1.00359 0.250742
1014.39 1.62124e-08 1.00366 0.272952
1014.17 1.6253e-08 1.00363 0.261227
1014.22 1.63289e-08 1.00364 0.269144
1014.12 1.62039e-08 1.00363 0.260723
1014.12 1.61631e-08 1.00362 0.267649
1012.93 1.3408e-08 1.00343 0.275607
1012.65 1.33135e-08 1.0034 0.273545
1014.34 1.61296e-08 1.00366 0.271814
1014.11 1.61082e-08 1.00362 0.264856
1014.07 1.61268e-08 1.0036 0.258723
1014.21 1.60433e-08 1.00364 0.26646
1014.12 1.61837e-08 1.00362 0.255446
1014.09 1.6155e-08 1.00361 0.255615
1014.04 1.6104e-08 1.00361 0.252788
1013.12 1.35033e-08 1.00344 0.276143
1014.27 1.60905e-08 1.00365 0.269568
1014.35 1.61552e-08 1.00366 0.272984
1014.23 1.63218e-08 1.00364 0.268332
1014.06 1.61169e-08 1.0036 0.260764
1014.08 1.61417e-08 1.00361 0.256812
1014 1.60678e-08 1.00359 0.255271
1014.14 1.6213e-08 1.00363 0.257919
1014.01 1.60717e-08 1.0036 0.251407
1014.03 1.60935e-08 1.00361 0.251568
1014.03 1.60941e-08 1.00361 0.253481
1013.17 1.35117e-08 1.00345 0.276348
1014.39 1.61714e-08 1.00367 0.274339
1014.19 1.62669e-08 1.00364 0.262888
1014.23 1.6335e-08 1.00365 0.270949
1014.15 1.62389e-08 1.00364 0.263943
1014 1.60957e-08 1.00359 0.257292
1014 1.60563e-08 1.0036 0.252599
1013.96 1.60239e-08 1.00359 0.251875
1014.04 1.61038e-08 1.00362 0.25061
1014 1.60858e-08 1.0036 0.248535
1014 1.60837e-08 1.0036 0.249269
1014.42 1.62013e-08 1.00367 0.276195
1014.24 1.63776e-08 1.00365 0.275011
1014.44 1.62486e-08 1.00367 0.277004
1014.43 1.62236e-08 1.00367 0.27666
1013.38 1.36136e-08 1.00318 0.276979
1013.31 1.35892e-08 1.00332 0.27693
1000 0 1.00266 0.277652
1000 0 1.00208 0.278343
1000 0 1.00208 0.278308
1013.18 1.36071e-08 1.00345 0.275678
1000 0 1.00208 0.278011
1013.11 1.35771e-08 1.00344 0.274577
1000 0 1.00208 0.277223
1012.89 1.34749e-08 1.00342 0.273358
1000 0 1.00207 0.276559
1014.11 1.61695e-08 1.00362 0.269375
1014.1 1.61537e-08 1.00361 0.271357
1014.07 1.61314e-08 1.0036 0.265934
1014.07 1.61332e-08 1.0036 0.268639
1014.07 1.61316e-08 1.00361 0.272149
1012.35 1.38009e-08 1.00333 0.27585
1014.1 1.61186e-08 1.00361 0.272278
1014.07 1.613e-08 1.0036 0.269189
1014.07 1.6135e-08 1.0036 0.267627
1014.01 1.60787e-08 1.00359 0.266724
1014.06 1.61261e-08 1.0036 0.263411
1014 1.60619e-08 1.00359 0.263777
1014.07 1.61282e-08 1.0036 0.269338
1014.01 1.60953e-08 1.00359 0.267552
1014.01 1.60692e-08 1.00359 0.265976
1013.99 1.60552e-08 1.00359 0.266005
1014 1.6059e-08 1.00359 0.259916
1013.98 1.60256e-08 1.00359 0.261374
1014.07 1.61275e-08 1.00361 0.271819
1014.09 1.6145e-08 1.0036 0.271171
1014.07 1.61372e-08 1.0036 0.26817
1014.07 1.61331e-08 1.00361 0.26601
1012.69 1.34478e-08 1.0034 0.272263
1014.19 1.60846e-08 1.00364 0.261983
1014.1 1.6168e-08 1.00362 0.254099
1014.07 1.61366e-08 1.00361 0.261713
1014 1.60478e-08 1.00359 0.260237
1014 1.60533e-08 1.0036 0.255958
1014.02 1.60756e-08 1.0036 0.252827
1013.99 1.60392e-08 1.00359 0.252515
1014.27 1.61245e-08 1.00365 0.267584
1014.2 1.62895e-08 1.00364 0.265101
1014.37 1.61947e-08 1.00366 0.271022
1014.07 1.61339e-08 1.0036 0.269189
1014.07 1.61342e-08 1.0036 0.267189
1014.01 1.60686e-08 1.00359 0.266581
1014 1.60492e-08 1.00359 0.262891
1014.24 1.61009e-08 1.00365 0.264959
1014.11 1.61838e-08 1.00362 0.25392
1014.02 1.608e-08 1.00361 0.24959
1014 1.60474e-08 1.00359 0.257929
1013.98 1.60234e-08 1.00359 0.257889
1014 1.60569e-08 1.0036 0.251096
1013.98 1.60287e-08 1.00359 0.25362
1013.96 1.59815e-08 1.00359 0.251015
1014.17 1.62561e-08 1.00363 0.260912
1014.12 1.62041e-08 1.00363 0.260703
1014.38 1.62088e-08 1.00366 0.272878
1014.23 1.63292e-08 1.00364 0.26987
1014.01 1.60926e-08 1.00359 0.26748
1014 1.60594e-08 1.00359 0.265106
1013.99 1.60291e-08 1.00359 0.265938
1013.98 1.60364e-08 1.00359 0.259995
1013.98 1.60355e-08 1.00359 0.25543
1013.97 1.60038e-08 1.00359 0.256172
1014.14 1.62137e-08 1.00363 0.256771
1013.96 1.5979e-08 1.00359 0.2508
1014.02 1.6079e-08 1.00361 0.247612
1014 1.60719e-08 1.0036 0.246584
1013.97 1.59755e-08 1.00359 0.249883
1013.94 1.59191e-08 1.00359 0.249283
1014.41 1.62299e-08 1.00366 0.273758
1014.22 1.63334e-08 1.00364 0.270633
1014.08 1.61534e-08 1.00362 0.255856
1014.16 1.62508e-08 1.00364 0.265976
1014.09 1.61634e-08 1.00363 0.256451
1013.09 1.34623e-08 1.00344 0.276424
1014.06 1.61165e-08 1.0036 0.260751
1014.37 1.61588e-08 1.00366 0.272976
1014.27 1.60923e-08 1.00365 0.269957
1014.23 1.63191e-08 1.00364 0.268665
1014.08 1.614e-08 1.00361 0.256795
1014 1.60688e-08 1.00359 0.255268
1014.14 1.6211e-08 1.00363 0.257785
1014.03 1.60931e-08 1.00361 0.250983
1014.01 1.60712e-08 1.0036 0.251749
1014.03 1.60931e-08 1.00361 0.253895
1013.22 1.3543e-08 1.00345 0.27648
1014.39 1.61716e-08 1.00366 0.274723
1014.19 1.62674e-08 1.00364 0.26358
1014.23 1.63364e-08 1.00365 0.271259
1014.16 1.62395e-08 1.00363 0.263092
1014 1.61001e-08 1.00359 0.257246
1014 1.60557e-08 1.0036 0.252618
1013.96 1.60282e-08 1.00359 0.251844
1014.05 1.61061e-08 1.00362 0.250684
1014 1.60851e-08 1.0036 0.248922
1014 1.60839e-08 1.0036 0.249082
1014.4 1.61866e-08 1.00367 0.275524
1014.24 1.63582e-08 1.00365 0.272023
1014.1 1.61698e-08 1.00363 0.256175
1014.18 1.62671e-08 1.00364 0.267744
1014.12 1.62029e-08 1.00363 0.258806
1013.95 1.58597e-08 1.00359 0.254908
1013.99 1.61111e-08 1.00359 0.248923
1013.89 1.54689e-08 1.00358 0.248256
1014.01 1.61008e-08 1.00361 0.245632
1013.97 1.59982e-08 1.0036 0.245991
1014.41 1.62023e-08 1.00367 0.276253
1014.24 1.6371e-08 1.00365 0.274784
1014.25 1.63777e-08 1.00365 0.275062
1014.22 1.63275e-08 1.00365 0.273429
1014.25 1.63855e-08 1.00365 0.27522
1014.45 1.62735e-08 1.00367 0.277176
1014.44 1.62455e-08 1.00367 0.276949
1013.48 1.36793e-08 1.00319 0.277077
1014.43 1.62237e-08 1.00367 0.276643
1013.39 1.36312e-08 1.00318 0.277253
1000 0 1.00267 0.277621
1013.29 1.35584e-08 1.00317 0.277172
1000 0 1.00237 0.277745
1000 0 1.00208 0.278417
1013.31 1.3684e-08 1.00347 0.276332
1013.25 1.36306e-08 1.00345 0.275406
1000 0 1.00208 0.278214
1000 0 1.00208 0.277718
1013 1.35285e-08 1.00344 0.274217
1000 0 1.00208 0.277017
1014.07 1.61252e-08 1.0036 0.263357
1014.07 1.61341e-08 1.0036 0.267603
1014 1.60621e-08 1.00359 0.26378
1014.01 1.60788e-08 1.00359 0.266672
1014.07 1.61292e-08 1.0036 0.26919
1014.06 1.61261e-08 1.00361 0.272271
1014.07 1.61295e-08 1.0036 0.26934
1014.01 1.60949e-08 1.00359 0.267588
1014.01 1.60686e-08 1.00359 0.265956
1013.99 1.60547e-08 1.00359 0.265864
1014 1.60585e-08 1.00359 0.25989
1013.98 1.60251e-08 1.00359 0.261524
1014.02 1.61004e-08 1.00359 0.267796
1014 1.60969e-08 1.00359 0.266841
1013.98 1.60577e-08 1.00359 0.264458
1013.92 1.57048e-08 1.00359 0.265162
1013.97 1.60242e-08 1.00359 0.258456
1013.96 1.59376e-08 1.00359 0.260661
1014.07 1.61331e-08 1.0036 0.269055
1014.07 1.61333e-08 1.0036 0.267171
1014.01 1.6069e-08 1.00359 0.266413
1014 1.60494e-08 1.00359 0.263185
1014.23 1.61029e-08 1.00365 0.264576
1014.11 1.61826e-08 1.00362 0.25378
1014.02 1.60797e-08 1.00361 0.249754
1014 1.60477e-08 1.00359 0.258264
1013.98 1.60233e-08 1.00359 0.257626
1013.98 1.60285e-08 1.00359 0.253626
1014 1.6057e-08 1.0036 0.25071
1013.96 1.59818e-08 1.00359 0.251021
1014.17 1.6253e-08 1.00363 0.260361
1014.12 1.62039e-08 1.00363 0.260574
1014.39 1.62124e-08 1.00366 0.272731
1014.22 1.63289e-08 1.00364 0.26973
1014.01 1.6092e-08 1.00359 0.267483
1014 1.60588e-08 1.00359 0.265026
1013.99 1.60289e-08 1.00359 0.265859
1013.98 1.60363e-08 1.00359 0.26016
1014.14 1.62149e-08 1.00363 0.256947
1014.02 1.60784e-08 1.00361 0.247907
1014 1.60716e-08 1.0036 0.246137
1013.98 1.60355e-08 1.00359 0.25563
1013.97 1.60035e-08 1.00359 0.25612
1013.97 1.59746e-08 1.00359 0.249496
1013.96 1.59793e-08 1.00359 0.250751
1013.94 1.59184e-08 1.00359 0.249418
1014.09 1.6157e-08 1.00362 0.255515
1014.1 1.61637e-08 1.00363 0.2559
1014.17 1.62543e-08 1.00364 0.266165
1014.4 1.62353e-08 1.00366 0.273963
1014.22 1.63373e-08 1.00364 0.270363
1013.99 1.60737e-08 1.00359 0.266544
1013.99 1.60222e-08 1.00359 0.264067
1013.96 1.59437e-08 1.00358 0.256961
1013.94 1.58866e-08 1.00358 0.25331
1014.04 1.61045e-08 1.00362 0.250711
1013.96 1.59631e-08 1.00358 0.246299
1014 1.60767e-08 1.0036 0.243001
1013.95 1.59487e-08 1.00359 0.242995
1013.92 1.57779e-08 1.00359 0.248414
1014.44 1.62701e-08 1.00366 0.275089
1014.22 1.63394e-08 1.00365 0.270635
1014.18 1.62822e-08 1.00364 0.268973
1014.06 1.61297e-08 1.00362 0.25151
1014.14 1.62149e-08 1.00363 0.260506
1014.08 1.61213e-08 1.00362 0.252685
1013.17 1.35117e-08 1.00345 0.27657
1014.39 1.61714e-08 1.00366 0.275038
1014 1.60957e-08 1.00359 0.257196
1014.23 1.6335e-08 1.00365 0.271876
1014.19 1.62669e-08 1.00364 0.264144
1014.15 1.62389e-08 1.00363 0.262238
1014 1.60563e-08 1.0036 0.252642
1013.96 1.60239e-08 1.00359 0.251819
1014.04 1.61038e-08 1.00362 0.250877
1014 1.60837e-08 1.0036 0.249235
1014 1.60858e-08 1.0036 0.249277
1014.4 1.61872e-08 1.00367 0.275658
1014.24 1.63597e-08 1.00365 0.272974
1014.1 1.61708e-08 1.00363 0.256091
1014.18 1.62686e-08 1.00364 0.267852
1014.13 1.62091e-08 1.00363 0.258554
1013.95 1.58375e-08 1.00359 0.2549
1013.99 1.61147e-08 1.00359 0.248943
1013.89 1.54478e-08 1.00358 0.248214
1014.01 1.61024e-08 1.00361 0.245395
1013.97 1.60009e-08 1.0036 0.245304
1014.24 1.63626e-08 1.00365 0.274062
1014.2 1.63015e-08 1.00365 0.270415
1014.08 1.61653e-08 1.00362 0.251791
1014.16 1.62529e-08 1.00364 0.263664
1014.1 1.61624e-08 1.00363 0.255475