# vtk DataFile Version 2.0
Wound Healing Simulation
ASCII
DATASET UNSTRUCTURED_GRID
POINTS 3012 float
69.9759 18.75 4
67.2507 60.3285 4
69.976 18.75 2
73.0099 25.446 4
71.1327 20.9142 4
68.6801 16.6661 4
67.8215 19.9262 3.97352
67.2507 60.3286 2
71.1327 54.0858 4
68.6801 58.3339 4
65.6939 62.2254 4
65.3081 58.9988 3.97219
74.6784 42.3946 4
73.7221 47.2057 4
69.9759 18.75 0
73.0099 25.446 2
68.6801 16.6661 2
71.1327 20.9142 2
67.822 19.9299 2
74.6792 32.6053 4
73.7222 27.7943 4
72.1454 23.1494 4
70.6113 26.2216 3.9735
68.8818 21.9578 3.97375
67.2507 14.6715 4
66.6328 17.9732 3.97235
65.7565 21.0392 3.96237
67.2507 60.3285 0
71.1327 54.0858 2
68.6801 58.3339 2
65.694 62.2255 2
65.3096 58.9943 2
72.1454 51.8506 4
69.9759 56.25 4
68.8322 53.1143 3.97356
64.0165 64.0165 4
66.6064 57.1329 3.97338
63.8813 60.762 3.96964
63.4858 57.7614 3.9622
60.3285 67.2507 4
74.6792 42.3947 2
73.7222 47.2057 2
74.9194 39.9526 4
74.2788 44.8158 4
72.1659 42.0857 3.97491
73.0099 49.554 4
71.2465 46.5985 3.97346
73.0099 25.446 0
71.1327 20.9142 0
68.6801 16.6661 0
67.8215 19.9262 0.0264803
74.6792 32.6053 2
73.7222 27.7943 2
67.2508 14.6715 2
72.1455 23.1494 2
70.6106 26.2224 2
66.6338 17.9775 2
68.882 21.9604 2
65.7547 21.041 2
74.9197 35.0474 4
74.2794 30.1841 4
72.1827 32.9448 3.97543
71.2758 28.4327 3.9736
69.8122 24.0596 3.97358
68.3261 26.9592 3.9641
66.7264 22.9451 3.96295
65.694 12.7746 4
65.3193 16.1065 3.97109
64.6746 19.2105 3.96152
63.7436 22.0913 3.96427
71.1327 54.0858 0
65.6939 62.2254 0
68.6801 58.3339 0
65.3081 58.9988 0.0278105
72.1455 51.8506 2
69.9759 56.25 2
68.8325 53.1112 2
64.0165 64.0165 2
66.6076 57.1283 2
63.8822 60.7572 2
63.478 57.7595 2
62.2254 65.694 4
58.8909 65.4122 3.98075
69.7651 50.9901 3.97325
67.7794 55.1678 3.97367
66.605 52.1984 3.963
62.3318 62.4242 3.97487
64.628 56.0208 3.96255
62.1923 59.3883 3.96289
61.7198 56.6327 3.96059
58.3339 68.6801 4
60.3285 67.2508 2
73.7221 47.2057 0
74.6784 42.3946 0
74.9197 39.9526 2
74.2794 44.8159 2
72.165 42.0855 2
73.0099 49.554 2
71.2457 46.5975 2
75 37.5 4
72.4033 39.8027 3.97612
71.78 44.353 3.97438
69.7969 41.7891 3.96598
70.5719 48.8144 3.97323
68.8928 46.0107 3.96549
74.6792 32.6053 0
73.7222 27.7943 0
67.2507 14.6715 0
72.1454 23.1494 0
70.6113 26.2216 0.0264983
68.8818 21.9578 0.0262479
66.6328 17.9732 0.0276483
65.7565 21.0392 0.0376334
74.9197 35.0474 2
74.2794 30.1841 2
72.1818 32.9447 2
71.2748 28.433 2
65.694 12.7745 2
65.3202 16.1111 2
69.8118 24.0612 2
68.3298 26.9599 2
64.6688 19.2127 2
66.7272 22.9465 2
63.7423 22.0921 2
72.4112 35.2254 3.97625
71.8016 30.678 3.97462
69.8339 33.2725 3.9661
68.9544 29.0442 3.96479
67.5815 24.9219 3.96345
66.0379 27.6771 3.97023
64.0165 10.9835 4
64.606 23.8825 3.96654
63.8846 14.3321 3.96809
63.4913 17.4624 3.96015
62.7683 20.3806 3.96214
61.836 23.0432 3.96987
60.6804 11.1027 3.97562
57.6048 11.4794 3.96715
72.1454 51.8506 0
69.9759 56.25 0
68.8322 53.1143 0.0264438
64.0165 64.0165 0
63.8813 60.762 0.0303646
66.6064 57.1329 0.0266194
63.4858 57.7614 0.0378013
62.2255 65.694 2
58.8932 65.4074 2
69.765 50.988 2
67.7801 55.1638 2
66.6054 52.197 2
62.3337 62.4184 2
64.6215 56.0186 2
62.1885 59.3882 2
61.7162 56.6326 2
60.6652 63.9728 3.97774
57.0214 66.7326 3.98291
57.5503 63.6674 3.97236
67.466 50.1673 3.96364
65.6613 54.1624 3.96258
64.3637 51.3332 3.96653
60.7663 60.9147 3.96675
62.6893 55.0175 3.96332
60.58 58.111 3.9582
60.144 55.7025 3.9653
56.25 69.9759 4
58.3339 68.6801 2
60.3285 67.2507 0
58.9177 9.65985 3.97782
62.2254 9.30607 4
73.0099 49.554 0
74.2788 44.8158 0
71.2465 46.5985 0.0265396
72.1659 42.0857 0.0250939
74.9194 39.9526 0
75 37.5 2
72.403 39.8025 2
71.7794 44.3524 2
69.7965 41.7889 2
70.5714 48.813 2
68.897 46.0103 2
72.4868 37.5129 3.97582
70.035 39.6581 3.96654
69.4213 43.9057 3.96594
67.4684 41.4852 3.975
68.2326 48.1001 3.96448
66.5432 45.408 3.97303
74.9197 35.0474 0
74.2794 30.1841 0
72.1827 32.9448 0.0245705
71.2758 28.4327 0.0264019
65.694 12.7746 0
65.3193 16.1065 0.0289144
69.8122 24.0596 0.0264208
68.3261 26.9592 0.0359044
66.7264 22.9451 0.0370462
64.6746 19.2105 0.038482
63.7436 22.0913 0.0357254
72.4109 35.225 2
71.8011 30.678 2
69.833 33.273 2
68.9577 29.0447 2
64.0165 10.9835 2
63.8859 14.3376 2
63.4858 17.4636 2
67.5839 24.923 2
66.0354 27.6782 2
62.7685 20.3806 2
64.6037 23.8837 2
61.8342 23.0437 2
60.6825 11.1077 2
57.6042 11.4724 2
70.052 35.3951 3.9667
69.4598 31.1545 3.96518
67.5351 33.6077 3.97438
66.6272 29.6566 3.97241
65.3676 25.7476 3.96841
63.8457 28.3352 3.976
62.337 12.6596 3.97368
62.5817 24.7317 3.97254
62.186 15.8048 3.96264
61.6895 18.7479 3.95954
60.973 21.448 3.96608
60.0646 23.8687 3.97339
59.2377 12.8149 3.96316
55.8676 10.2648 3.97376
56.3921 13.1797 3.96626
69.7651 50.9901 0.0267463
62.2254 65.694 0
58.8909 65.4122 0.0192478
67.7794 55.1678 0.0263307
66.605 52.1984 0.0369954
62.3318 62.4242 0.0251336
62.1923 59.3883 0.0371076
64.628 56.0208 0.0374459
61.7198 56.6327 0.0394142
60.6676 63.9695 2
57.0244 66.7289 2
57.5512 63.6716 2
67.4677 50.1662 2
65.659 54.1606 2
64.3619 51.3324 2
60.7633 60.9155 2
62.6893 55.0177 2
60.577 58.1117 2
60.1428 55.7024 2
55.0675 67.9302 3.98546
59.212 62.332 3.96678
55.7969 64.8869 3.97265
56.3155 62.0388 3.97693
65.1482 49.3597 3.96855
63.5474 53.2394 3.96484
62.1252 50.5579 3.9712
59.2938 59.5128 3.95887
60.8448 54.2203 3.968
59.1095 56.9223 3.9605
58.9897 55.0754 3.96851
48.0993 68.572 3.98178
50.9451 69.9306 3.9881
54.0858 71.1327 4
56.25 69.976 2
58.3339 68.6801 0
57.0547 8.3392 3.97903
60.3285 7.74928 4
58.9204 9.66463 2
62.2255 9.30602 2
70.5719 48.8144 0.0267703
71.78 44.353 0.0256248
68.8928 46.0107 0.0345093
69.7969 41.7891 0.0340222
72.4033 39.8027 0.023885
75 37.5 0
72.4859 37.5126 2
70.0347 39.658 2
69.4222 43.9053 2
67.4655 41.4846 2
68.2348 48.0991 2
66.5402 45.4069 2
70.1232 37.5235 3.96673
67.7142 39.5081 3.97486
67.078 43.4482 3.97465
65.2593 41.1835 3.97662
65.8871 47.3765 3.97078
64.3232 44.7846 3.97604
72.4112 35.2254 0.0237535
71.8016 30.678 0.0253773
69.8339 33.2725 0.0339
68.9544 29.0442 0.0352068
64.0165 10.9835 0
63.8846 14.3321 0.0319119
63.4913 17.4624 0.0398498
67.5815 24.9219 0.0365456
66.0379 27.6771 0.0297678
64.606 23.8825 0.033463
62.7683 20.3806 0.0378638
61.836 23.0432 0.0301308
60.6804 11.1027 0.02438
57.6048 11.4794 0.0328518
70.0517 35.3953 2
69.46 31.1549 2
67.5328 33.6082 2
66.6257 29.6576 2
62.339 12.665 2
62.1833 15.8053 2
61.6891 18.7476 2
65.3652 25.7488 2
63.8429 28.3362 2
60.9725 21.4477 2
62.5795 24.7324 2
60.0642 23.8693 2
59.2366 12.8139 2
56.3913 13.1767 2
55.8684 10.2679 2
67.7545 35.5572 3.97453
67.1397 31.6471 3.97411
65.4193 33.9584 3.97646
64.3585 30.2598 3.97576
63.2507 26.502 3.97485
61.8308 28.8899 3.97561
60.7662 14.2506 3.96431
60.6554 25.4753 3.97491
60.5342 17.1862 3.9576
59.983 19.9306 3.96201
59.31 22.4079 3.96892
58.5331 24.4987 3.97409
54.0316 9.15906 3.97038
57.8884 14.3889 3.96058
54.7754 12.0731 3.97118
55.2825 14.7336 3.9589
67.466 50.1673 0.0363567
57.0214 66.7326 0.0170895
60.6652 63.9728 0.0222641
57.5503 63.6674 0.0276436
65.6613 54.1624 0.037422
64.3637 51.3332 0.0334704
60.7663 60.9147 0.0332512
60.58 58.111 0.041803
62.6893 55.0175 0.0366767
60.144 55.7025 0.0346995
55.0708 67.9272 2
59.211 62.3357 2
55.7985 64.8864 2
56.3136 62.0392 2
65.1459 49.3587 2
63.5465 53.2391 2
62.124 50.5573 2
59.3023 59.5191 2
60.8455 54.2205 2
59.1179 56.9246 2
58.9965 55.0768 2
53.0392 68.9985 3.98644
53.9619 66.0014 3.97437
57.8596 60.8247 3.96499
54.6662 63.1541 3.96905
55.1875 60.5584 3.97517
62.863 48.5736 3.97368
61.4641 52.4818 3.96956
59.8266 49.8839 3.97299
57.8977 58.1856 3.95868
59.0203 53.8288 3.97063
57.8333 55.6867 3.96294
50.1051 67.848 3.97941
47.459 66.5661 3.97609
46.0534 69.1518 3.98382
48.1007 68.5712 2
48.7993 70.7223 3.98933
50.9479 69.9295 2
51.8506 72.1454 4
54.0858 71.1327 2
56.25 69.9759 0
55.0994 7.14358 3.98335
58.3339 6.31992 4
57.058 8.34461 2
60.3286 7.74926 2
58.9177 9.65985 0.0221825
62.2254 9.30607 0
68.2326 48.1001 0.035524
69.4213 43.9057 0.0340637
66.5432 45.408 0.0269652
67.4684 41.4852 0.0249993
70.035 39.6581 0.0334648
72.4868 37.5129 0.0241835
70.1224 37.5236 2
67.7107 39.5078 2
67.0766 43.4474 2
65.257 41.1833 2
65.8846 47.3754 2
64.321 44.7837 2
67.8156 37.5249 3.97466
65.5013 39.3592 3.97666
64.867 42.9792 3.9762
63.3368 40.8918 3.97668
63.6271 46.6389 3.97543
62.3444 44.1331 3.97581
70.052 35.3951 0.0332989
69.4598 31.1545 0.0348192
67.5351 33.6077 0.0256172
66.6272 29.6566 0.0275914
62.337 12.6596 0.0263225
62.186 15.8048 0.0373562
61.6895 18.7479 0.0404636
65.3676 25.7476 0.0315866
63.8457 28.3352 0.0240014
62.5817 24.7317 0.0274589
60.973 21.448 0.0339158
60.0646 23.8687 0.0266093
59.2377 12.8149 0.0368357
56.3921 13.1797 0.0337435
55.8676 10.2648 0.0262429
67.7515 35.5575 2
67.1385 31.6479 2
65.4158 33.9589 2
64.3562 30.2607 2
60.7643 14.2507 2
60.5247 17.1876 2
59.9803 19.9304 2
63.2489 26.5028 2
61.8294 28.89 2
59.3135 22.4076 2
60.6542 25.4764 2
58.5306 24.5012 2
57.8883 14.3887 2
55.2804 14.7286 2
54.0345 9.15609 2
54.7721 12.0762 2
65.6005 35.6843 3.97644
64.887 32.202 3.97582
63.9121 34.2876 3.97634
62.1499 30.7238 3.97565
61.2391 27.1999 3.97526
60.3325 29.2734 3.97578
59.2647 15.7257 3.9572
58.842 25.9768 3.97548
58.9448 18.4632 3.95916
58.4081 21.0098 3.96351
57.8552 23.2775 3.97022
57.4815 24.8671 3.97557
52.1085 8.16494 3.97309
53.0432 11.0758 3.96743
56.6247 15.8284 3.9571
53.793 13.7583 3.97783
54.3106 16.1085 3.96029
55.0675 67.9302 0.0145433
65.1482 49.3597 0.0314471
55.7969 64.8869 0.0273484
59.212 62.332 0.033216
56.3155 62.0388 0.0230671
63.5474 53.2394 0.0351609
62.1252 50.5579 0.0287999
59.2938 59.5128 0.0411312
59.1095 56.9223 0.0394958
60.8448 54.2203 0.031995
58.9897 55.0754 0.031485
53.0424 68.9965 2
53.9636 65.9999 2
57.8607 60.8272 2
54.6654 63.1557 2
55.1853 60.558 2
62.8615 48.5727 2
61.464 52.4816 2
59.8279 49.8835 2
57.9017 58.1883 2
59.0254 53.8296 2
57.8301 55.6853 2
52.0657 66.9892 3.97738
52.9415 64.1858 3.97388
56.5946 59.4281 3.95962
53.6493 61.5477 3.97085
54.209 59.2506 3.96513
[...]
POINT_DATA 3012
SCALARS rho_c_phif_kappa float 4
LOOKUP_TABLE default
1000 0 1.00222 0.271553
1000 0 1.00179 0.27192
1000 0 1.00222 0.2717
1000 0 1.00221 0.272051
1000 0 1.00221 0.271689
1000 0 1.00222 0.271512
1011.3 1.24455e-08 1.0026 0.270142
1000 0 1.00179 0.271942
1000 0 1.00179 0.272609
1000 0 1.00179 0.272228
1000 0 1.00222 0.271472
1011.25 1.21927e-08 1.00281 0.270199
1000 0 1.0022 0.27256
1000 0 1.00221 0.273341
1000 0 1.00222 0.271829
1000 0 1.00221 0.272578
1000 0 1.00222 0.271549
1000 0 1.00221 0.271976
1011.17 1.24829e-08 1.0026 0.270097
1000 0 1.00179 0.272603
1000 0 1.00221 0.272177
1000 0 1.00221 0.271872
1011.25 1.25932e-08 1.00259 0.271267
1011.28 1.25044e-08 1.00259 0.270553
1000 0 1.00222 0.271564
1011.33 1.23881e-08 1.0026 0.269701
1012.46 1.42789e-08 1.00298 0.265514
1000 0 1.00179 0.271989
1000 0 1.002 0.272202
1000 0 1.002 0.271879
1000 0 1.00179 0.272116
1011.23 1.22382e-08 1.00281 0.270108
1000 0 1.00221 0.271928
1000 0 1.00221 0.271449
1011.3 1.25279e-08 1.00259 0.270179
1000 0 1.00179 0.272797
1011.25 1.22918e-08 1.00259 0.270129
1011.3 1.21434e-08 1.00281 0.270118
1012.47 1.42352e-08 1.00299 0.265295
1000 0 1.00179 0.273053
1000 0 1.00179 0.272607
1000 0 1.002 0.272918
1000 0 1.00179 0.272658
1000 0 1.00221 0.273485
1011.21 1.2619e-08 1.00279 0.271337
1000 0 1.00179 0.273203
1011.28 1.26539e-08 1.00259 0.270893
1000 0 1.0022 0.273132
1000 0 1.00221 0.272265
1000 0 1.00222 0.271569
1011.3 1.24455e-08 1.00259 0.270053
1000 0 1.002 0.272943
1000 0 1.00221 0.272761
1000 0 1.00222 0.27154
1000 0 1.00221 0.272298
1011.02 1.2627e-08 1.00259 0.270996
1011.25 1.24294e-08 1.0026 0.269744
1011.1 1.25388e-08 1.00259 0.270423
1012.47 1.42751e-08 1.00298 0.265353
1000 0 1.00179 0.272668
1000 0 1.00221 0.272279
1011.19 1.2591e-08 1.00258 0.271736
1011.24 1.26112e-08 1.00258 0.271483
1011.27 1.2557e-08 1.00259 0.270933
1012.42 1.42892e-08 1.00297 0.267042
1012.44 1.42831e-08 1.00297 0.265632
1000 0 1.00222 0.271835
1011.38 1.23397e-08 1.00261 0.269268
1012.47 1.42767e-08 1.00298 0.265058
1012.34 1.41973e-08 1.00296 0.259145
1000 0 1.00179 0.272007
1000 0 1.00179 0.272335
1000 0 1.00179 0.271851
1011.25 1.21927e-08 1.00281 0.270027
1000 0 1.00179 0.272178
1000 0 1.00179 0.271872
1011.12 1.25628e-08 1.0028 0.27038
1000 0 1.00201 0.272336
1011.18 1.23329e-08 1.00281 0.270187
1011.33 1.21922e-08 1.00271 0.269992
1012.48 1.42318e-08 1.00299 0.265467
1000 0 1.00179 0.272725
1011.61 1.21984e-08 1.00285 0.270879
1011.31 1.2607e-08 1.0028 0.270598
1011.27 1.24149e-08 1.0028 0.270265
1012.44 1.42866e-08 1.00297 0.265448
1011.38 1.2135e-08 1.00261 0.269944
1012.46 1.42493e-08 1.00298 0.264995
1012.51 1.42453e-08 1.00299 0.265714
1012.38 1.42415e-08 1.00297 0.259792
1000 0 1.00179 0.273319
1000 0 1.00179 0.273253
1000 0 1.00179 0.272427
1000 0 1.00179 0.272596
1000 0 1.00179 0.272645
1000 0 1.002 0.273019
1010.89 1.26514e-08 1.00268 0.271269
1000 0 1.002 0.272732
1011.07 1.26882e-08 1.00269 0.271095
1000 0 1.00179 0.272665
1011.19 1.25937e-08 1.00278 0.271501
1011.26 1.26409e-08 1.00258 0.271033
1012.41 1.42864e-08 1.00297 0.268307
1011.3 1.26476e-08 1.00259 0.270749
1012.43 1.42974e-08 1.00297 0.267522
1000 0 1.0022 0.272538
1000 0 1.0022 0.27339
1000 0 1.00222 0.271516
1000 0 1.00221 0.27273
1011.25 1.25932e-08 1.00259 0.270732
1011.28 1.25044e-08 1.00259 0.270299
1011.33 1.23881e-08 1.0026 0.269756
1012.46 1.42789e-08 1.00298 0.265204
1000 0 1.00179 0.272635
1000 0 1.00221 0.272867
1010.89 1.26235e-08 1.00268 0.271359
1011.01 1.26453e-08 1.00258 0.271224
1000 0 1.00201 0.27173
1011.35 1.23854e-08 1.00261 0.269591
1011.06 1.25905e-08 1.00259 0.270712
1012.45 1.42838e-08 1.00297 0.266968
1012.48 1.42735e-08 1.00298 0.26477
1012.46 1.42786e-08 1.00297 0.265737
1012.34 1.41978e-08 1.00296 0.25916
1011.16 1.25812e-08 1.00278 0.271561
1011.23 1.26086e-08 1.00258 0.271579
1012.41 1.4281e-08 1.00296 0.268294
1012.42 1.42897e-08 1.00296 0.267606
1012.43 1.4287e-08 1.00297 0.266245
1012.32 1.41638e-08 1.00296 0.26279
1000 0 1.00179 0.272431
1012.33 1.41824e-08 1.00296 0.25984
1011.43 1.23037e-08 1.00283 0.269429
1012.5 1.42806e-08 1.00299 0.264677
1012.35 1.42146e-08 1.00296 0.258426
1012.27 1.41157e-08 1.00295 0.255492
1011.56 1.22795e-08 1.00284 0.270091
1012.61 1.43418e-08 1.003 0.268272
1000 0 1.00179 0.272168
1000 0 1.00179 0.271892
1011.3 1.25279e-08 1.0028 0.270424
1000 0 1.00179 0.272699
1011.3 1.21434e-08 1.00282 0.269871
1011.25 1.22918e-08 1.00281 0.270176
1012.47 1.42352e-08 1.00299 0.265621
1000 0 1.00179 0.272901
1011.67 1.22343e-08 1.00285 0.271146
1011.11 1.26407e-08 1.00269 0.270548
1011.14 1.24525e-08 1.0027 0.270191
1012.46 1.42822e-08 1.00297 0.26547
1011.42 1.21809e-08 1.00283 0.269955
1012.47 1.42471e-08 1.00298 0.265156
1012.51 1.42413e-08 1.00299 0.265959
1012.38 1.42428e-08 1.00297 0.259418
1011.47 1.21622e-08 1.00284 0.270205
1011.73 1.22414e-08 1.00286 0.271495
1012.63 1.43231e-08 1.00301 0.269507
1012.44 1.42967e-08 1.00297 0.266052
1012.45 1.42696e-08 1.00298 0.265074
1012.32 1.4167e-08 1.00296 0.259388
1012.55 1.42693e-08 1.003 0.26674
1012.36 1.42162e-08 1.00296 0.258094
1012.39 1.42645e-08 1.00297 0.260909
1012.31 1.41584e-08 1.00296 0.256241
1000 0 1.00179 0.273423
1000 0 1.00179 0.273398
1000 0 1.00179 0.273359
1011.67 1.2299e-08 1.00285 0.270867
1000 0 1.0018 0.272756
1000 0 1.00179 0.272317
1000 0 1.00179 0.272527
1011.28 1.26539e-08 1.0028 0.271333
1011.21 1.2619e-08 1.00279 0.271525
1000 0 1.00179 0.272663
1000 0 1.00179 0.272665
1011.11 1.26235e-08 1.00278 0.271521
1011.2 1.26725e-08 1.00269 0.271234
1012.45 1.42819e-08 1.00297 0.26831
1011.06 1.26815e-08 1.0028 0.271034
1012.45 1.42914e-08 1.00297 0.26748
1011.15 1.25742e-08 1.00278 0.271538
1012.41 1.42801e-08 1.00297 0.26855
1012.42 1.42922e-08 1.00297 0.26799
1012.31 1.41563e-08 1.00295 0.265862
1012.43 1.42993e-08 1.00297 0.266826
1012.31 1.41576e-08 1.00295 0.26374
1000 0 1.00179 0.272647
1000 0 1.00221 0.273505
1011.19 1.2591e-08 1.00279 0.271348
1011.24 1.26112e-08 1.00258 0.270955
1000 0 1.00179 0.272253
1011.38 1.23397e-08 1.00261 0.269919
1011.27 1.2557e-08 1.00259 0.2705
1012.42 1.42892e-08 1.00296 0.266874
1012.44 1.42831e-08 1.00298 0.26583
1012.47 1.42767e-08 1.00298 0.264524
1012.34 1.41973e-08 1.00296 0.259172
1011.06 1.26109e-08 1.00278 0.271542
1011.17 1.26403e-08 1.00258 0.271342
1012.44 1.42767e-08 1.00296 0.268198
1012.45 1.42846e-08 1.00296 0.267612
1000 0 1.00179 0.272317
1011.45 1.23529e-08 1.00272 0.26965
1012.5 1.42771e-08 1.00299 0.264611
1012.45 1.4282e-08 1.00297 0.266182
1012.31 1.41643e-08 1.00295 0.262514
1012.35 1.42152e-08 1.00296 0.258424
1012.33 1.41828e-08 1.00296 0.259998
1012.27 1.41158e-08 1.00295 0.255558
1011.64 1.23211e-08 1.00284 0.269972
1012.6 1.4335e-08 1.003 0.268339
1012.4 1.42778e-08 1.00297 0.268562
1012.42 1.42871e-08 1.00296 0.26797
1012.32 1.41607e-08 1.00296 0.265665
1012.31 1.41593e-08 1.00295 0.263486
1012.32 1.41718e-08 1.00296 0.261043
1012.25 1.40908e-08 1.00295 0.259589
1011.5 1.22824e-08 1.00283 0.269501
1012.26 1.41034e-08 1.00295 0.256321
1012.53 1.42988e-08 1.00299 0.265631
1012.37 1.42344e-08 1.00297 0.257968
1012.29 1.41301e-08 1.00296 0.254862
1012.26 1.41078e-08 1.00295 0.254187
1012.59 1.4323e-08 1.003 0.267303
1012.63 1.43634e-08 1.003 0.269295
1012.44 1.43356e-08 1.00298 0.266452
1011.31 1.2607e-08 1.0028 0.270713
1000 0 1.00179 0.273157
1011.61 1.21984e-08 1.00285 0.271476
1011.27 1.24149e-08 1.0028 0.270245
1012.44 1.42866e-08 1.00297 0.265499
1011.38 1.2135e-08 1.00283 0.269965
1012.51 1.42453e-08 1.00299 0.266208
1012.46 1.42493e-08 1.00298 0.26533
1012.38 1.42415e-08 1.00297 0.259051
1011.56 1.21969e-08 1.00284 0.270421
1011.76 1.22684e-08 1.00286 0.271679
1012.61 1.4319e-08 1.003 0.269614
1012.46 1.42918e-08 1.00297 0.266048
1012.47 1.42663e-08 1.00298 0.265153
1012.32 1.41679e-08 1.00296 0.259376
1012.55 1.42664e-08 1.003 0.266985
1012.36 1.42172e-08 1.00296 0.258275
1012.39 1.42667e-08 1.00297 0.260851
1012.31 1.41588e-08 1.00296 0.255699
1011.84 1.22822e-08 1.00287 0.271806
1012.59 1.42968e-08 1.003 0.268469
1012.64 1.43388e-08 1.00301 0.270508
1012.46 1.43565e-08 1.00299 0.267897
1012.31 1.41502e-08 1.00295 0.260429
1012.34 1.41917e-08 1.00296 0.258538
1012.26 1.41e-08 1.00295 0.255509
1012.41 1.42929e-08 1.00298 0.263244
1012.28 1.41252e-08 1.00296 0.253338
1012.32 1.41702e-08 1.00297 0.256551
1012.3 1.41484e-08 1.00296 0.254417
1012.66 1.43803e-08 1.00301 0.272649
1012.02 1.23587e-08 1.00288 0.271981
1000 0 1.0018 0.273468
1000 0 1.0018 0.273449
1000 0 1.00179 0.273431
1011.78 1.23411e-08 1.00286 0.271272
1000 0 1.0018 0.273025
1011.75 1.23359e-08 1.00285 0.270608
1000 0 1.0018 0.27262
1011.3 1.26476e-08 1.0028 0.271052
1011.26 1.26409e-08 1.00279 0.271465
1012.43 1.42974e-08 1.00297 0.267433
1012.41 1.42864e-08 1.00297 0.268294
1011.19 1.25937e-08 1.00278 0.271547
1000 0 1.00179 0.272662
1010.79 1.26068e-08 1.00278 0.271534
1012.41 1.4276e-08 1.00297 0.268546
1012.42 1.42877e-08 1.00297 0.267947
1012.31 1.41562e-08 1.00295 0.265851
1012.45 1.42939e-08 1.00297 0.266791
1012.31 1.41581e-08 1.00295 0.263827
1012.39 1.42768e-08 1.00297 0.268634
1012.31 1.41521e-08 1.00295 0.266222
1012.31 1.41587e-08 1.00295 0.265188
1012.26 1.40962e-08 1.00294 0.26364
1012.31 1.41538e-08 1.00295 0.262023
1012.25 1.40929e-08 1.00295 0.261199
1011.16 1.25812e-08 1.00278 0.271518
1011.23 1.26086e-08 1.00258 0.271065
1012.41 1.4281e-08 1.00296 0.268119
1012.42 1.42897e-08 1.00297 0.267587
1000 0 1.00179 0.272189
1011.43 1.23037e-08 1.00261 0.269574
1012.5 1.42806e-08 1.00299 0.264556
1012.43 1.4287e-08 1.00297 0.266107
1012.32 1.41638e-08 1.00295 0.262229
1012.33 1.41824e-08 1.00296 0.260163
1012.35 1.42146e-08 1.00296 0.258391
1012.27 1.41157e-08 1.00295 0.255612
1011.56 1.22795e-08 1.00284 0.269836
1012.61 1.43418e-08 1.003 0.268273
1012.41 1.42737e-08 1.00296 0.268475
1012.42 1.42831e-08 1.00296 0.267986
1012.31 1.41605e-08 1.00295 0.265574
1012.31 1.41595e-08 1.00295 0.263723
1011.52 1.23267e-08 1.00283 0.269516
1012.54 1.42931e-08 1.00299 0.265315
1012.37 1.42356e-08 1.00297 0.258083
1012.32 1.41723e-08 1.00296 0.261186
1012.25 1.40904e-08 1.00295 0.259294
1012.29 1.41308e-08 1.00296 0.254588
1012.26 1.41033e-08 1.00295 0.256335
1012.26 1.41074e-08 1.00295 0.253988
1012.58 1.43224e-08 1.003 0.267544
1012.44 1.4339e-08 1.00298 0.266524
1012.62 1.43606e-08 1.003 0.269143
1012.31 1.41553e-08 1.00295 0.2663
1012.31 1.41591e-08 1.00295 0.264671
1012.26 1.40975e-08 1.00295 0.263758
1012.25 1.4087e-08 1.00294 0.260508
1012.26 1.40935e-08 1.00295 0.257308
1012.24 1.40803e-08 1.00294 0.256832
1012.56 1.43117e-08 1.003 0.266551
1012.25 1.40947e-08 1.00295 0.254172
1012.39 1.42611e-08 1.00297 0.259842
1012.3 1.41397e-08 1.00296 0.252539
1012.28 1.41241e-08 1.00295 0.252619
1012.25 1.4079e-08 1.00295 0.252281
1012.65 1.43775e-08 1.00301 0.270575
1012.43 1.43171e-08 1.00298 0.265106
1012.45 1.43529e-08 1.00299 0.268002
1012.39 1.42593e-08 1.00298 0.264703
1012.44 1.42967e-08 1.00297 0.266048
1011.73 1.22414e-08 1.00286 0.271833
1011.47 1.21622e-08 1.00284 0.270655
1012.63 1.43231e-08 1.003 0.269747
1012.45 1.42696e-08 1.00298 0.265239
1012.32 1.4167e-08 1.00296 0.25936
1012.55 1.42693e-08 1.003 0.267253
1012.39 1.42645e-08 1.00297 0.260801
1012.36 1.42162e-08 1.00296 0.258443
1012.31 1.41584e-08 1.00296 0.255211
1011.85 1.23032e-08 1.00287 0.271913
1012.57 1.42946e-08 1.003 0.268484
1012.63 1.43369e-08 1.00301 0.270745
1012.46 1.43587e-08 1.00299 0.268055
1012.31 1.41507e-08 1.00295 0.260432
1012.34 1.41927e-08 1.00296 0.258531
1012.26 1.40998e-08 1.00295 0.255517
1012.42 1.42961e-08 1.00298 0.263559
1012.29 1.41261e-08 1.00296 0.253718
1012.32 1.41708e-08 1.00297 0.25622
1012.3 1.41492e-08 1.00296 0.254806
1011.93 1.23168e-08 1.00287 0.271949
1012.65 1.43514e-08 1.00301 0.271716
1012.44 1.43294e-08 1.00298 0.266065
1012.46 1.43743e-08 1.00299 0.269152
1012.41 1.42797e-08 1.00299 0.266319
1012.26 1.41107e-08 1.00295 0.256617
1012.27 1.40973e-08 1.00295 0.253945
1012.26 1.41813e-08 1.00295 0.252569
1012.35 1.41965e-08 1.00297 0.257676
1012.28 1.41482e-08 1.00295 0.250412
1012.3 1.41606e-08 1.00296 0.253397
1012.66 1.43678e-08 1.00301 0.272648
1012.45 1.43823e-08 1.00299 0.272041
1012.66 1.43962e-08 1.00301 0.27269
1012.66 1.43799e-08 1.00301 0.272659
1012.1 1.24008e-08 1.00266 0.272332
1012.03 1.23744e-08 1.00277 0.272319
1000 0 1.00226 0.272713
1000 0 1.0018 0.273457
1000 0 1.0018 0.273445
1011.92 1.24038e-08 1.00287 0.271669
1000 0 1.0018 0.273285
1011.85 1.23751e-08 1.00286 0.271136
1000 0 1.0018 0.272908
1011.67 1.2299e-08 1.00285 0.270436
1000 0 1.00179 0.272504
1012.43 1.42993e-08 1.00297 0.266757
1012.42 1.42922e-08 1.00297 0.267928
1012.31 1.41576e-08 1.00295 0.263854
1012.31 1.41563e-08 1.00295 0.265843
1012.41 1.42801e-08 1.00297 0.268537
1011.15 1.25742e-08 1.00278 0.271514
1012.43 1.42724e-08 1.00297 0.268634
1012.31 1.4152e-08 1.00295 0.266217
1012.31 1.41589e-08 1.00295 0.265109
1012.26 1.40961e-08 1.00294 0.263565
1012.31 1.41545e-08 1.00295 0.262029
1012.25 1.40928e-08 1.00295 0.261169
1012.31 1.41513e-08 1.00295 0.266343
1012.26 1.40947e-08 1.00294 0.264376
1012.26 1.40908e-08 1.00294 0.262859
1012.26 1.41525e-08 1.00294 0.262792
1012.25 1.40907e-08 1.00295 0.258367
1012.25 1.40961e-08 1.00294 0.258495
1012.4 1.42778e-08 1.00296 0.268397
1012.42 1.42871e-08 1.00296 0.268052
1012.32 1.41607e-08 1.00295 0.265424
1012.31 1.41593e-08 1.00296 0.263989
1011.5 1.22824e-08 1.00283 0.269535
1012.53 1.42988e-08 1.00299 0.264962
1012.37 1.42344e-08 1.00297 0.258195
1012.32 1.41718e-08 1.00296 0.261338
1012.25 1.40908e-08 1.00294 0.259003
1012.26 1.41034e-08 1.00295 0.256347
1012.29 1.41301e-08 1.00296 0.254365
1012.26 1.41078e-08 1.00295 0.253858
1012.59 1.4323e-08 1.003 0.267795
1012.44 1.43356e-08 1.00298 0.266679
1012.63 1.43634e-08 1.003 0.269111
1012.31 1.41551e-08 1.00295 0.266228
1012.31 1.41592e-08 1.00295 0.264697
1012.26 1.40972e-08 1.00294 0.263532
1012.25 1.40868e-08 1.00294 0.260792
1012.56 1.43069e-08 1.003 0.26636
1012.39 1.42631e-08 1.00297 0.259718
1012.3 1.41401e-08 1.00296 0.252805
1012.26 1.40932e-08 1.00295 0.257573
1012.24 1.40803e-08 1.00294 0.256616
1012.28 1.41242e-08 1.00295 0.252355
1012.25 1.40947e-08 1.00295 0.254189
1012.25 1.40788e-08 1.00295 0.252602
1012.43 1.43184e-08 1.00298 0.264786
1012.39 1.42564e-08 1.00298 0.264614
1012.64 1.43753e-08 1.00301 0.270447
1012.45 1.43551e-08 1.00299 0.268484
1012.26 1.41027e-08 1.00294 0.264363
1012.25 1.40851e-08 1.00294 0.262283
1012.25 1.40943e-08 1.00294 0.262794
1012.24 1.4091e-08 1.00294 0.257664
1012.25 1.40988e-08 1.00294 0.255187
1012.24 1.40657e-08 1.00294 0.255289
1012.41 1.42888e-08 1.00298 0.262853
1012.24 1.40734e-08 1.00294 0.2519
1012.32 1.41607e-08 1.00297 0.253314
1012.28 1.4141e-08 1.00296 0.249319
1012.26 1.41068e-08 1.00295 0.251197
1012.22 1.39814e-08 1.00295 0.251604
1012.65 1.43963e-08 1.00301 0.271416
1012.45 1.43638e-08 1.00299 0.269001
1012.37 1.42288e-08 1.00298 0.261783
1012.41 1.42825e-08 1.00299 0.266484
1012.38 1.42443e-08 1.00298 0.262086
1011.84 1.22822e-08 1.00287 0.272037
1012.31 1.41502e-08 1.00295 0.260445
1012.64 1.43388e-08 1.00301 0.270995
1012.59 1.42968e-08 1.003 0.268425
1012.46 1.43565e-08 1.00299 0.268196
1012.34 1.41917e-08 1.00296 0.258517
1012.26 1.41e-08 1.00295 0.255523
1012.41 1.42929e-08 1.00298 0.263815
1012.32 1.41702e-08 1.00297 0.255681
1012.28 1.41252e-08 1.00296 0.254112
1012.3 1.41484e-08 1.00296 0.254989
1011.94 1.23345e-08 1.00287 0.27201
1012.65 1.43503e-08 1.00301 0.27185
1012.44 1.43295e-08 1.00298 0.266303
1012.47 1.43759e-08 1.00299 0.269485
1012.41 1.42795e-08 1.00298 0.266047
1012.26 1.41121e-08 1.00295 0.256567
1012.27 1.4097e-08 1.00295 0.253944
1012.26 1.41826e-08 1.00295 0.252521
1012.35 1.41979e-08 1.00297 0.257836
1012.28 1.41474e-08 1.00295 0.250773
1012.3 1.41615e-08 1.00296 0.253242
1012.65 1.43585e-08 1.00301 0.272403
1012.47 1.43857e-08 1.00299 0.270134
1012.38 1.42393e-08 1.00298 0.261937
1012.44 1.43055e-08 1.00299 0.267836
1012.4 1.42704e-08 1.00298 0.26346
1012.24 1.41354e-08 1.00294 0.254579
1012.27 1.41856e-08 1.00295 0.250488
1012.14 1.34883e-08 1.00294 0.249635
1012.33 1.41887e-08 1.00297 0.252875
1012.29 1.42161e-08 1.00295 0.249669
1012.65 1.43664e-08 1.00301 0.272663
1012.46 1.43816e-08 1.00299 0.271982
1012.46 1.43837e-08 1.00299 0.271997
1012.45 1.43282e-08 1.00299 0.270858
1012.45 1.43856e-08 1.00299 0.272034
1012.66 1.44134e-08 1.00301 0.272734
1012.66 1.43942e-08 1.00301 0.272683
1012.19 1.24577e-08 1.00266 0.272348
1012.66 1.43803e-08 1.00301 0.272663
1012.11 1.24155e-08 1.00266 0.272547
1000 0 1.00226 0.272645
1012.02 1.23587e-08 1.00265 0.27253
1000 0 1.00203 0.272804
1000 0 1.0018 0.273432
1012.04 1.2462e-08 1.00288 0.272004
1011.95 1.2425e-08 1.00287 0.271496
1000 0 1.0018 0.273422
1000 0 1.0018 0.273136
1011.78 1.23411e-08 1.00286 0.270944
1000 0 1.0018 0.27278
1012.31 1.41538e-08 1.00295 0.262031
1012.31 1.41587e-08 1.00295 0.265091
1012.25 1.40929e-08 1.00295 0.261154
1012.26 1.40962e-08 1.00294 0.263489
1012.31 1.41521e-08 1.00295 0.266212
1012.39 1.42768e-08 1.00297 0.268627
1012.31 1.4151e-08 1.00295 0.266347
1012.26 1.40941e-08 1.00294 0.264416
1012.25 1.40902e-08 1.00294 0.26283
1012.26 1.41519e-08 1.00294 0.262664
1012.25 1.40899e-08 1.00295 0.258319
1012.25 1.40955e-08 1.00294 0.258672
1012.26 1.40909e-08 1.00294 0.26464
1012.27 1.42442e-08 1.00294 0.263644
1012.25 1.41637e-08 1.00294 0.261066
1012.2 1.3941e-08 1.00294 0.261939
1012.25 1.41357e-08 1.00294 0.256899
1012.25 1.40902e-08 1.00294 0.2575
1012.31 1.41553e-08 1.00295 0.266166
1012.31 1.41591e-08 1.00295 0.264629
1012.26 1.40975e-08 1.00294 0.263334
1012.25 1.4087e-08 1.00295 0.261074
1012.56 1.43117e-08 1.003 0.266194
1012.39 1.42611e-08 1.00297 0.259651
1012.3 1.41397e-08 1.00296 0.25305
1012.26 1.40935e-08 1.00295 0.257833
1012.24 1.40803e-08 1.00294 0.256418
1012.25 1.40947e-08 1.00295 0.254213
1012.28 1.41241e-08 1.00295 0.251945
1012.25 1.4079e-08 1.00295 0.25274
1012.43 1.43171e-08 1.00298 0.264466
1012.39 1.42593e-08 1.00298 0.264577
1012.65 1.43775e-08 1.00301 0.270295
1012.45 1.43529e-08 1.00299 0.26855
1012.26 1.41024e-08 1.00294 0.264367
1012.25 1.40847e-08 1.00294 0.26224
1012.25 1.40941e-08 1.00294 0.262725
1012.24 1.40909e-08 1.00294 0.257871
1012.41 1.42916e-08 1.00298 0.262703
1012.32 1.4162e-08 1.00297 0.253725
1012.28 1.41398e-08 1.00296 0.249017
1012.25 1.40984e-08 1.00294 0.255389
1012.24 1.40656e-08 1.00294 0.255195
1012.26 1.41062e-08 1.00295 0.25087
1012.24 1.40728e-08 1.00294 0.251898
1012.22 1.398e-08 1.00294 0.251756
1012.37 1.42328e-08 1.00298 0.26165
1012.38 1.42446e-08 1.00298 0.261735
1012.41 1.42808e-08 1.00298 0.266663
1012.65 1.43953e-08 1.003 0.271328
1012.45 1.43645e-08 1.00299 0.268972
1012.26 1.42122e-08 1.00294 0.263418
1012.25 1.41229e-08 1.00294 0.26099
1012.22 1.40211e-08 1.00294 0.255171
1012.22 1.39854e-08 1.00294 0.253508
1012.35 1.41983e-08 1.00297 0.257921
1012.22 1.39559e-08 1.00294 0.248469
1012.3 1.41629e-08 1.00296 0.249013
1012.27 1.41516e-08 1.00295 0.245933
1012.2 1.38524e-08 1.00295 0.250087
1012.66 1.44132e-08 1.003 0.271932
1012.45 1.43687e-08 1.00299 0.26956
1012.43 1.42997e-08 1.00299 0.268124
1012.36 1.42243e-08 1.00298 0.258479
1012.41 1.42737e-08 1.00298 0.263982
1012.37 1.42346e-08 1.00297 0.259018
1011.93 1.23168e-08 1.00287 0.27205
1012.65 1.43514e-08 1.00301 0.271962
1012.26 1.41107e-08 1.00295 0.256515
1012.46 1.43743e-08 1.00299 0.269814
1012.44 1.43294e-08 1.00298 0.266592
1012.41 1.42797e-08 1.00298 0.265798
1012.27 1.40973e-08 1.00295 0.253949
1012.26 1.41813e-08 1.00295 0.252483
1012.35 1.41965e-08 1.00297 0.258057
1012.3 1.41606e-08 1.00296 0.253288
1012.28 1.41482e-08 1.00295 0.251116
1012.65 1.43573e-08 1.00301 0.272455
1012.47 1.43868e-08 1.00299 0.270458
1012.38 1.42389e-08 1.00298 0.262119
1012.44 1.43073e-08 1.00299 0.267931
1012.41 1.42764e-08 1.00298 0.263175
1012.24 1.4128e-08 1.00294 0.254537
1012.27 1.41887e-08 1.00295 0.250515
1012.14 1.34815e-08 1.00294 0.249598
1012.33 1.41896e-08 1.00297 0.252636
1012.29 1.42187e-08 1.00296 0.249333