# vtk DataFile Version 2.0
Wound Healing Simulation
ASCII
DATASET UNSTRUCTURED_GRID
POINTS 3012 float
69.9759 18.75 4
67.2507 60.3285 4
69.976 18.75 2
73.0099 25.446 4
71.1327 20.9142 4
68.6801 16.6661 4
67.825 19.9262 3.98149
67.2507 60.3286 2
71.1327 54.0858 4
68.6801 58.3339 4
65.6939 62.2254 4
65.3115 59.0007 3.98026
74.6784 42.3946 4
73.7221 47.2057 4
69.9759 18.75 0
73.0099 25.446 2
68.6801 16.6661 2
71.1327 20.9142 2
67.8256 19.9293 2
74.6792 32.6053 4
73.7222 27.7943 4
72.1454 23.1494 4
70.6137 26.2208 3.98094
68.8852 21.958 3.9818
67.2507 14.6715 4
66.6365 17.9723 3.9806
65.7951 21.0265 3.97123
67.2507 60.3285 0
71.1327 54.0858 2
68.6801 58.3339 2
65.694 62.2255 2
65.3126 58.997 2
72.1454 51.8506 4
69.9759 56.25 4
68.8359 53.1129 3.98082
64.0165 64.0165 4
66.6102 57.1335 3.9811
63.8848 60.7653 3.98121
63.498 57.7686 3.9718
60.3285 67.2507 4
74.6792 42.3947 2
73.7222 47.2057 2
74.9194 39.9526 4
74.2788 44.8158 4
72.1679 42.0854 3.98033
73.0099 49.554 4
71.2489 46.5979 3.98009
73.0099 25.446 0
71.1327 20.9142 0
68.6801 16.6661 0
67.825 19.9262 0.018511
74.6792 32.6053 2
73.7222 27.7943 2
67.2508 14.6715 2
72.1455 23.1494 2
70.6137 26.2213 2
66.6374 17.9762 2
68.8855 21.9601 2
65.7945 21.0273 2
74.9197 35.0474 4
74.2794 30.1841 4
72.1846 32.9433 3.98068
71.2778 28.4313 3.98043
69.8151 24.0595 3.98156
68.345 26.9519 3.97
66.7605 22.934 3.97062
65.694 12.7746 4
65.3227 16.1042 3.9801
64.7114 19.1971 3.97201
63.8821 22.0391 3.96743
71.1327 54.0858 0
65.6939 62.2254 0
68.6801 58.3339 0
65.3115 59.0007 0.019744
72.1455 51.8506 2
69.9759 56.25 2
68.836 53.111 2
64.0165 64.0165 2
66.6111 57.1299 2
63.8864 60.762 2
63.4974 57.7684 2
62.2254 65.694 4
58.8943 65.414 3.99014
69.7685 50.9888 3.98075
67.7832 55.1671 3.98091
66.6474 52.208 3.96963
62.3355 62.4272 3.98523
64.6588 56.0299 3.97179
62.1999 59.3993 3.97077
61.8173 56.6745 3.96739
58.3339 68.6801 4
60.3285 67.2508 2
73.7221 47.2057 0
74.6784 42.3946 0
74.9197 39.9526 2
74.2794 44.8159 2
72.1674 42.0854 2
73.0099 49.554 2
71.2488 46.5977 2
75 37.5 4
72.4052 39.8021 3.98087
71.7822 44.3527 3.98038
69.8025 41.7892 3.96989
70.5747 48.8134 3.98028
68.9105 46.0139 3.96951
74.6792 32.6053 0
73.7222 27.7943 0
67.2507 14.6715 0
72.1454 23.1494 0
70.6137 26.2208 0.0190584
68.8852 21.958 0.018198
66.6365 17.9723 0.0193952
65.7951 21.0265 0.0287728
74.9197 35.0474 2
74.2794 30.1841 2
72.1841 32.9436 2
71.2777 28.4317 2
65.694 12.7745 2
65.3241 16.1083 2
69.8152 24.0606 2
68.3449 26.9524 2
64.7109 19.1978 2
66.7601 22.9348 2
63.8815 22.0395 2
72.413 35.2241 3.98096
71.8036 30.6762 3.98073
69.8385 33.2684 3.97022
68.9643 29.0385 3.96995
67.6094 24.9126 3.97018
66.1884 27.6366 3.9673
64.0165 10.9835 4
64.7519 23.8328 3.96744
63.8893 14.3281 3.98248
63.5103 17.4513 3.97165
62.9014 20.3258 3.96732
62.0693 22.954 3.96704
60.6834 11.0984 3.98642
57.6115 11.452 3.97798
72.1454 51.8506 0
69.9759 56.25 0
68.8359 53.1129 0.0191786
64.0165 64.0165 0
63.8848 60.7653 0.0187899
66.6102 57.1335 0.0188978
63.498 57.7686 0.0282035
62.2255 65.694 2
58.8955 65.4133 2
69.7684 50.9879 2
67.7836 55.1642 2
66.6469 52.2073 2
62.3374 62.4249 2
64.6583 56.0294 2
62.1993 59.3997 2
61.8167 56.6745 2
60.6682 63.9766 3.98758
57.0254 66.7347 3.99135
57.5572 63.6893 3.98064
67.5056 50.1756 3.9693
65.6998 54.1718 3.97028
64.532 51.3814 3.96635
60.7715 60.934 3.97554
62.8151 55.0628 3.96712
60.651 58.1489 3.96499
60.3192 55.7746 3.96717
56.25 69.9759 4
58.3339 68.6801 2
60.3285 67.2507 0
58.9208 9.65659 3.98779
62.2254 9.30607 4
73.0099 49.554 0
74.2788 44.8158 0
71.2489 46.5979 0.0199139
72.1679 42.0854 0.0196673
74.9194 39.9526 0
75 37.5 2
72.4051 39.8023 2
71.7821 44.3525 2
69.8021 41.7889 2
70.5746 48.8132 2
68.9105 46.0134 2
72.4886 37.512 3.98056
70.0398 39.657 3.96998
69.4288 43.9068 3.96978
67.5901 41.4959 3.96814
68.264 48.1061 3.96926
66.6992 45.4368 3.96738
74.9197 35.0474 0
74.2794 30.1841 0
72.1846 32.9433 0.0193208
71.2778 28.4313 0.0195656
65.694 12.7746 0
65.3227 16.1042 0.0199024
69.8151 24.0595 0.0184384
68.345 26.9519 0.0299957
66.7605 22.934 0.0293751
64.7114 19.1971 0.0279865
63.8821 22.0391 0.0325681
72.413 35.2242 2
71.8036 30.6767 2
69.8381 33.2688 2
68.9643 29.039 2
64.0165 10.9835 2
63.8913 14.3314 2
63.5097 17.4521 2
67.6091 24.9133 2
66.1884 27.6369 2
62.9007 20.326 2
64.7515 23.8332 2
62.0684 22.9543 2
60.6856 11.1007 2
57.6123 11.4508 2
70.0566 35.3919 3.97022
69.4655 31.1497 3.97
67.6506 33.5916 3.96805
66.7654 29.6245 3.96747
65.5186 25.7015 3.96731
64.1016 28.265 3.96962
62.3412 12.6556 3.98512
62.8268 24.6476 3.96791
62.1964 15.7904 3.97295
61.8061 18.6934 3.967
61.1975 21.3537 3.9656
60.3688 23.7475 3.96873
59.2451 12.7838 3.97637
55.8739 10.237 3.9806
56.4037 13.1251 3.97449
69.7685 50.9888 0.0192511
62.2254 65.694 0
58.8943 65.414 0.0098622
67.7832 55.1671 0.0190884
66.6474 52.208 0.0303705
62.3355 62.4272 0.0147705
62.1999 59.3993 0.0292345
64.6588 56.0299 0.0282129
61.8173 56.6745 0.0326112
60.6699 63.9752 2
57.0263 66.7344 2
57.5573 63.6908 2
67.5053 50.1749 2
65.6992 54.1712 2
64.5317 51.3811 2
60.7713 60.9351 2
62.8145 55.0627 2
60.6506 58.1491 2
60.3187 55.7744 2
55.0712 67.9316 3.99191
59.2179 62.3624 3.97692
55.8044 64.9085 3.98453
56.3251 62.0829 3.97524
65.3234 49.4044 3.96654
63.701 53.288 3.96662
62.4033 50.6384 3.96693
59.329 59.5488 3.97007
61.066 54.2985 3.96582
59.2737 56.9953 3.96337
59.2298 55.1677 3.96547
48.1022 68.5775 3.98742
50.949 69.9312 3.99207
54.0858 71.1327 4
56.25 69.976 2
58.3339 68.6801 0
57.0583 8.33635 3.98918
60.3285 7.74928 4
58.9228 9.65799 2
62.2255 9.30602 2
70.5747 48.8134 0.0197179
71.7822 44.3527 0.0196218
68.9105 46.0139 0.0304941
69.8025 41.7892 0.030109
72.4052 39.8021 0.0191297
75 37.5 0
72.4881 37.5121 2
70.0398 39.6569 2
69.4287 43.9064 2
67.59 41.4957 2
68.2639 48.1055 2
66.6989 45.4365 2
70.1279 37.5213 3.97013
67.8296 39.5114 3.96824
67.2137 43.4675 3.96777
65.5002 41.2039 3.97157
66.0586 47.4144 3.96699
64.5936 44.8378 3.96993
72.413 35.2241 0.0190377
71.8036 30.6762 0.0192713
69.8385 33.2684 0.0297812
68.9643 29.0385 0.0300505
64.0165 10.9835 0
63.8893 14.3281 0.0175186
63.5103 17.4513 0.0283549
67.6094 24.9126 0.0298165
66.1884 27.6366 0.0327029
64.7519 23.8328 0.0325621
62.9014 20.3258 0.0326834
62.0693 22.954 0.0329633
60.6834 11.0984 0.0135836
57.6115 11.452 0.022024
70.0566 35.3921 2
69.4655 31.1501 2
67.6506 33.5917 2
66.7655 29.6247 2
62.3432 12.6587 2
62.1962 15.7902 2
61.8052 18.6937 2
65.5184 25.7018 2
64.1007 28.2653 2
61.1966 21.354 2
62.8263 24.648 2
60.3687 23.748 2
59.2458 12.7836 2
56.4042 13.1236 2
55.8746 10.2357 2
67.8667 35.5477 3.96828
67.2592 31.6236 3.96778
65.6532 33.9306 3.97158
64.6144 30.2001 3.97022
63.5018 26.4242 3.96891
62.1685 28.7946 3.97336
60.7741 14.2281 3.97609
60.9783 25.3572 3.97059
60.6052 17.1397 3.96732
60.204 19.8307 3.96419
59.6051 22.2804 3.96593
58.8929 24.348 3.97127
54.0372 9.1384 3.9825
57.9077 14.3425 3.97532
54.7856 12.0201 3.97559
55.3088 14.6638 3.97315
67.5056 50.1756 0.0307034
57.0254 66.7347 0.00865062
60.6682 63.9766 0.0124246
57.5572 63.6893 0.0193638
65.6998 54.1718 0.0297154
64.532 51.3814 0.0336525
60.7715 60.934 0.0244629
60.651 58.1489 0.0350142
62.8151 55.0628 0.0328752
60.3192 55.7746 0.0328288
55.0718 67.9315 2
59.218 62.3637 2
55.8043 64.9095 2
56.3247 62.0849 2
65.3232 49.4041 2
63.7004 53.2877 2
62.4035 50.6382 2
59.3285 59.5503 2
61.0659 54.2984 2
59.2736 56.9951 2
59.2296 55.1673 2
53.0432 68.9993 3.99198
53.9668 66.0119 3.98604
57.8777 60.8619 3.97499
54.6832 63.2036 3.97988
55.2081 60.602 3.97481
63.1458 48.6475 3.9681
61.7169 52.5629 3.96626
60.191 49.9951 3.96883
58.0076 58.2488 3.96827
59.3032 53.9296 3.9671
58.0985 55.7915 3.96372
50.1089 67.8558 3.98718
47.463 66.5782 3.98404
46.0558 69.1566 3.98759
48.1021 68.5782 2
48.803 70.7225 3.99217
50.9494 69.9312 2
51.8506 72.1454 4
54.0858 71.1327 2
56.25 69.9759 0
55.103 7.14074 3.99058
58.3339 6.31992 4
57.0599 8.33706 2
60.3286 7.74926 2
58.9208 9.65659 0.0122102
62.2254 9.30607 0
68.264 48.1061 0.0307372
69.4288 43.9068 0.0302205
66.6992 45.4368 0.0326234
67.5901 41.4959 0.0318585
70.0398 39.657 0.030022
72.4886 37.512 0.0194357
70.1275 37.5213 2
67.8295 39.5113 2
67.2143 43.4673 2
65.4993 41.2037 2
66.0587 47.4141 2
64.5924 44.8374 2
67.9276 37.5216 3.96834
65.7372 39.3668 3.97199
65.1198 43.0171 3.97093
63.6481 40.9198 3.97577
63.9083 46.7041 3.96901
62.6987 44.1988 3.97379
70.0566 35.3919 0.0297849
69.4655 31.1497 0.0299987
67.6506 33.5916 0.0319492
66.7654 29.6245 0.0325275
62.3412 12.6556 0.0148781
62.1964 15.7904 0.0270532
61.8061 18.6934 0.0329957
65.5186 25.7015 0.0326851
64.1016 28.265 0.0303826
62.8268 24.6476 0.0320857
61.1975 21.3537 0.0344024
60.3688 23.7475 0.0312738
59.2451 12.7838 0.023634
56.4037 13.1251 0.0255122
55.8739 10.237 0.0193986
67.8665 35.5478 2
67.2595 31.6238 2
65.6527 33.9308 2
64.6137 30.2003 2
60.774 14.2284 2
60.6051 17.1389 2
60.2039 19.8307 2
63.5011 26.4246 2
62.1671 28.7951 2
59.607 22.2806 2
60.978 25.3577 2
58.8921 24.3489 2
57.9076 14.3417 2
55.309 14.6635 2
54.0377 9.13705 2
54.7861 12.0181 2
65.8278 35.6681 3.97172
65.1348 32.1603 3.97081
64.2001 34.2547 3.97586
62.483 30.651 3.97408
61.5708 27.091 3.97176
60.7265 29.1623 3.97696
59.3068 15.6784 3.97224
59.2235 25.8248 3.97425
59.108 18.3733 3.96537
58.7022 20.8762 3.96333
58.1998 23.1226 3.96656
57.863 24.6984 3.97316
52.112 8.15544 3.98458
53.0574 11.0238 3.97797
56.6711 15.7581 3.97439
53.8068 13.6957 3.97515
54.3687 16.0196 3.97468
55.0712 67.9316 0.0080919
65.3234 49.4044 0.0334588
55.8044 64.9085 0.0154746
59.2179 62.3624 0.0230808
56.3251 62.0829 0.0247586
63.701 53.288 0.0333752
62.4033 50.6384 0.0330708
59.329 59.5488 0.0299322
59.2737 56.9953 0.0366313
61.066 54.2985 0.0341816
59.2298 55.1677 0.0345261
53.0436 68.9994 2
53.9667 66.0126 2
57.877 60.8634 2
54.6828 63.2046 2
55.208 60.6037 2
63.1454 48.6472 2
61.7177 52.5628 2
60.1907 49.9946 2
58.007 58.2503 2
59.3048 53.9294 2
58.0975 55.7909 2
52.0701 66.9987 3.9869
52.9533 64.2157 3.98254
56.6423 59.477 3.97455
53.6791 61.6155 3.97663
[...]
POINT_DATA 3012
SCALARS Jp_lamdaP float 4
LOOKUP_TABLE default
0.999884 1 1 0.999884
1 1 1 1
0.999888 1 1 0.999888
0.999845 1 1 0.999845
0.999882 1 1 0.999882
0.999881 1 1 0.999881
0.99941 1 1 0.99941
1 1 1 1
1 1 1 1
1 1 1 1
0.999954 1 1 0.999954
0.999576 1 1 0.999576
0.999805 1 1 0.999805
0.999836 1 1 0.999836
0.999887 1 1 0.999887
0.999858 1 1 0.999858
0.999885 1 1 0.999885
0.99989 1 1 0.99989
0.999413 1 1 0.999413
1 1 1 1
0.999826 1 1 0.999826
0.999867 1 1 0.999867
0.999283 1 1 0.999283
0.999378 1 1 0.999378
0.999903 1 1 0.999903
0.999447 1 1 0.999447
0.998657 1 1 0.998657
1 1 1 1
0.999931 1 1 0.999931
0.999944 1 1 0.999944
1 1 1 1
0.999584 1 1 0.999584
0.999857 1 1 0.999857
0.999879 1 1 0.999879
0.999484 1 1 0.999484
1 1 1 1
0.999574 1 1 0.999574
0.99967 1 1 0.99967
0.998717 1 1 0.998717
1 1 1 1
1 1 1 1
0.999916 1 1 0.999916
1 1 1 1
0.999826 1 1 0.999826
0.999215 1 1 0.999215
1 1 1 1
0.999394 1 1 0.999394
0.999869 1 1 0.999869
0.999894 1 1 0.999894
0.999887 1 1 0.999887
0.999418 1 1 0.999418
0.999901 1 1 0.999901
0.99984 1 1 0.99984
0.999912 1 1 0.999912
0.999878 1 1 0.999878
0.999284 1 1 0.999284
0.999451 1 1 0.999451
0.999381 1 1 0.999381
0.998642 1 1 0.998642
1 1 1 1
0.999813 1 1 0.999813
0.999362 1 1 0.999362
0.999249 1 1 0.999249
0.999331 1 1 0.999331
0.99878 1.00042 1 0.998361
0.9985 1 1 0.998497
0.999952 1 1 0.999952
0.999562 1 1 0.999562
0.998763 1 1 0.998763
1.0015 1.00354 1 0.997967
1 1 1 1
1 1 1 1
1 1 1 1
0.999593 1 1 0.999593
1 1 1 1
1 1 1 1
0.999419 1 1 0.999419
0.999991 1 1 0.999991
0.999526 1 1 0.999526
0.999712 1 1 0.999712
0.998714 1 1 0.998714
1 1 1 1
0.999969 1 1 0.999969
0.999363 1 1 0.999363
0.999456 1 1 0.999456
0.998727 1.00042 1 0.998304
0.999828 1 1 0.999828
0.998615 1 1 0.998615
0.99885 1 1 0.99885
0.998231 1.00002 1 0.998212
1 1 1 1
1 1 1 1
1 1 1 1
1 1 1 1
1 1 1 1
0.999909 1 1 0.999909
0.999284 1 1 0.999284
0.999921 1 1 0.999921
0.999357 1 1 0.999357
1 1 1 1
0.999197 1 1 0.999197
0.999365 1 1 0.999365
0.998741 1.00074 1 0.997998
0.999428 1 1 0.999428
0.999529 1.00144 1 0.998091
0.999822 1 1 0.999822
0.999851 1 1 0.999851
0.999921 1 1 0.999921
0.999887 1 1 0.999887
0.999286 1 1 0.999286
0.999386 1 1 0.999386
0.999456 1 1 0.999456
0.998628 1 1 0.998628
1 1 1 1
0.999826 1 1 0.999826
0.999222 1 1 0.999222
0.999248 1 1 0.999248
0.999976 1 1 0.999976
0.99961 1 1 0.99961
0.999334 1 1 0.999334
0.998759 1.00044 1 0.998323
0.998745 1 1 0.998745
0.998537 1.00001 1 0.998524
1.00189 1.00392 1 0.997971
0.999218 1 1 0.999218
0.999224 1 1 0.999224
0.998538 1.00039 1 0.998149
0.998808 1.00056 1 0.998247
0.998573 1.00019 1 0.99838
1.00666 1.00893 1 0.997748
1 1 1 1
1.00286 1.00498 1 0.997894
0.999772 1 1 0.999772
0.998813 1 1 0.998813
1.00064 1.00261 1 0.99804
1.00969 1.012 1 0.997724
0.999907 1 1 0.999907
0.999312 1 1.00002 0.999293
1 1 1 1
1 1 1 1
0.999426 1 1 0.999426
1 1 1 1
0.999717 1 1 0.999717
0.999531 1 1 0.999531
0.998712 1 1 0.998712
1 1 1 1
0.999978 1 1 0.999978
0.999412 1 1 0.999412
0.999503 1 1 0.999503
0.998606 1.0003 1 0.998306
0.999845 1 1 0.999845
0.998618 1 1 0.998618
0.998849 1 1 0.998849
0.998368 1.00017 1 0.998196
0.999915 1 1 0.999915
0.999995 1 1 0.999995
0.99946 1 1 0.99946
0.999133 1.00094 1 0.998192
0.998534 1.00007 1 0.998463
1.00485 1.00711 1 0.997764
0.999046 1 1 0.999046
0.999648 1.00155 1 0.998097
0.998906 1.00003 1.00057 0.998306
0.999482 1.00144 1 0.99804
1 1 1 1
1 1 1 1
1 1 1 1
0.999946 1 1 0.999946
1 1 1 1
1 1 1 1
1 1 1 1
0.999316 1 1 0.999316
0.999239 1 1 0.999239
1 1 1 1
1 1 1 1
0.999199 1 1 0.999199
0.999327 1 1 0.999327
0.998898 1.0009 1 0.997998
0.999344 1 1 0.999344
0.999493 1.00141 1 0.998091
0.999189 1 1 0.999189
0.998297 1.00035 1 0.997946
0.99924 1.00119 1 0.998054
1.00997 1.01247 1 0.997536
0.99942 1.00129 1 0.998128
1.00979 1.0122 1 0.997617
1 1 1 1
0.99984 1 1 0.99984
0.999071 1 1 0.999071
0.999248 1 1 0.999248
1 1 1 1
0.999659 1 1 0.999659
0.999337 1 1 0.999337
0.998738 1.00045 1 0.998284
0.998573 1.00002 1 0.998551
0.998726 1 1 0.998726
1.00228 1.00432 1 0.997975
0.999215 1 1 0.999215
0.999223 1 1 0.999223
0.998421 1.00036 1 0.998064
0.998844 1.00057 1 0.998275
1 1 1 1
0.999764 1 1 0.999764
0.998858 1 1 0.998858
0.998568 1.00019 1 0.998379
1.00661 1.00893 1 0.997709
1.00071 1.00268 1 0.998029
1.00331 1.0054 1 0.997922
1.00927 1.01156 1 0.997729
0.999898 1 1 0.999898
0.999357 1 1.00006 0.999294
0.998206 1.00024 1 0.997966
0.998761 1.00056 1 0.998203
1.00796 1.01036 1 0.997633
1.00721 1.00961 1 0.997628
1.00434 1.00651 1 0.997843
1.01735 1.01979 1 0.997607
0.999851 1 1 0.999851
1.01157 1.01391 1 0.997698
0.998966 1 1 0.998966
0.998842 1.00067 1 0.998178
1.00773 1.00997 1 0.997778
1.01395 1.01628 1 0.997712
0.999164 1 1 0.999164
0.999461 1 1 0.999461
0.999458 1 1.00068 0.998781
0.999381 1 1 0.999381
1 1 1 1
0.999988 1 1 0.999988
0.999483 1 1 0.999483
0.998471 1.00016 1 0.998309
0.999857 1 1 0.999857
0.998849 1 1 0.998849
0.998621 1 1 0.998621
0.998511 1.00033 1 0.99818
0.999931 1 1 0.999931
0.999997 1 1 0.999997
0.999462 1 1 0.999462
0.998987 1.0008 1 0.998192
0.998499 1.00003 1 0.998468
1.00429 1.00654 1 0.997762
0.999048 1 1 0.999048
0.999267 1.00116 1 0.998108
0.998948 1.00018 1.00047 0.998302
0.999526 1.0015 1 0.998026
1 1 1 1
0.999245 1 1 0.999245
0.999666 1 1 0.999666
0.99932 1 1.00037 0.998947
1.00698 1.00932 1 0.997673
1.00246 1.00454 1 0.997936
1.01294 1.01542 1 0.997561
0.998965 1 1.00044 0.998528
1.00276 1.00485 1 0.99792
1.00084 1.00127 1.00158 0.998002
1.00409 1.0062 1 0.997897
0.999887 1 1 0.999887
1 1 1 1
1 1 1 1
1 1 1 1
1 1 1 1
0.999974 1 1 0.999974
1 1 1 1
0.999936 1 1 0.999936
1 1 1 1
0.999345 1 1 0.999345
0.999282 1 1 0.999282
0.99951 1.00142 1 0.998091
0.999051 1.00106 1 0.997998
0.999201 1 1 0.999201
1 1 1 1
0.999188 1 1 0.999188
0.998408 1.00046 1 0.997947
0.999352 1.0013 1 0.998054
1.00986 1.01236 1 0.997535
0.999356 1.00123 1 0.998127
1.0098 1.01222 1 0.997616
0.998112 1.00017 1 0.997938
1.00922 1.01177 1 0.997488
1.01028 1.01273 1 0.997583
1.02357 1.02611 1 0.997526
1.00893 1.01132 1 0.997639
1.02183 1.02432 1 0.99756
0.999212 1 1 0.999212
0.999222 1 1 0.999222
0.99831 1.00033 1 0.99798
0.998879 1.00058 1 0.998302
1 1 1 1
0.999755 1 1 0.999755
0.998902 1 1 0.998902
0.998563 1.00018 1 0.998379
1.00657 1.00892 1 0.997671
1.00374 1.00581 1 0.99795
1.00076 1.00275 1 0.998018
1.00891 1.0112 1 0.997735
0.999888 1 1 0.999888
0.999417 1 1.00012 0.999295
0.998153 1.00021 1 0.997942
0.998732 1.00053 1 0.998201
1.00819 1.01059 1 0.997627
1.00739 1.00975 1 0.997666
0.999841 1 1 0.999841
0.998963 1 1 0.998963
0.999065 1.00086 1 0.998211
1.00461 1.00678 1 0.997841
1.01769 1.02013 1 0.997613
1.00708 1.00936 1 0.997744
1.01149 1.01382 1 0.997701
1.01425 1.01658 1 0.997712
0.999176 1 1.00001 0.999167
0.999514 1 1.00073 0.998782
0.999519 1 1.00006 0.999458
1.00838 1.01083 1 0.997575
1.0083 1.01067 1 0.997657
1.02145 1.02399 1 0.99752
1.01972 1.02222 1 0.997552
1.01381 1.01618 1 0.997666
1.02084 1.02317 1 0.997725
0.999084 1 1 0.999084
1.01605 1.01836 1 0.99773
0.99848 1 1 0.99848
1.00085 1.00306 1 0.9978
1.01119 1.01361 1 0.997608
1.01472 1.01692 1 0.99784
0.999601 1 1 0.999601
0.99876 1 1 0.99876
0.999796 1 1.00093 0.998862
0.999262 1 1.00065 0.998617
0.998845 1.00065 1 0.998192
0.999999 1 1 0.999999
0.999947 1 1 0.999947
0.999465 1 1 0.999465
0.998473 1 1 0.998473
1.00372 1.00597 1 0.99776
0.999051 1 1 0.999051
0.998941 1.00032 1.00033 0.998298
0.998844 1.00073 1 0.998118
0.999555 1.00155 1 0.998013
1 1 1 1
0.999245 1 1 0.999245
0.999673 1 1 0.999673
0.999288 1 1.00034 0.998944
1.00668 1.00903 1 0.99767
1.00155 1.00362 1 0.997938
1.01305 1.01553 1 0.997559
0.998982 1 1.00045 0.998533
1.00238 1.00446 1 0.997935
1.00109 1.00138 1.00173 0.99799
1.00394 1.00598 1 0.997965
1 1 1 1
0.999791 1 1 0.999791
0.998782 1 1.00002 0.998758
0.999544 1 1.00039 0.999155
0.999562 1 1.00088 0.998679
1.01622 1.01874 1 0.997525
1.00791 1.01021 1 0.997724
1.01419 1.01667 1 0.997559
1.00017 1 1.00199 0.998177
1.0052 1.00737 1 0.997845
1.00327 1.00469 1.00086 0.997725
0.999872 1 1 0.999872
0.999528 1 1 0.999528
0.999897 1 1 0.999897
0.99989 1 1 0.99989
1 1 1 1
1 1 1 1
1 1 1 1
1 1 1 1
1 1 1 1
0.999992 1 1 0.999992
1 1 1 1
0.999966 1 1 0.999966
1 1 1 1
0.999927 1 1 0.999927
1 1 1 1
0.999274 1.00115 1 0.998127
0.999418 1.00137 1 0.998053
1.00972 1.01213 1 0.997615
1.00972 1.01222 1 0.997534
0.99854 1.00059 1 0.997947
0.999187 1 1 0.999187
0.998151 1.00021 1 0.997937
1.00922 1.01176 1 0.997488
1.01003 1.01248 1 0.997583
1.02379 1.02632 1 0.997534
1.00865 1.01104 1 0.997636
1.02131 1.02381 1 0.997559
1.0088 1.01136 1 0.997477
1.02334 1.0259 1 0.997507
1.02352 1.02604 1 0.997546
1.02863 1.03105 1 0.997652
1.01848 1.02099 1 0.997549
1.02302 1.02532 1 0.997752
0.998108 1.00019 1 0.997917
0.998706 1.00051 1 0.998198
1.00839 1.01079 1 0.997621
1.00757 1.00988 1 0.997704
0.999831 1 1 0.999831
0.99896 1 1 0.99896
0.999286 1.00104 1 0.998244
1.00489 1.00707 1 0.99784
1.01803 1.02046 1 0.997618
1.01142 1.01375 1 0.997704
1.00635 1.00866 1 0.99771
1.01454 1.01686 1 0.997712
0.999169 1 1 0.999169
0.999526 1 1.00074 0.998784
0.999581 1 1.00013 0.999455
1.00853 1.01101 1 0.99754
1.00834 1.01071 1 0.997655
1.02117 1.0237 1 0.997527
1.02003 1.02252 1 0.997556
0.999083 1 1 0.999083
0.998644 1.00017 1 0.998474
1.00084 1.00296 1.00003 0.997849
1.01396 1.01633 1 0.997668
1.02016 1.02245 1 0.997756
1.01131 1.01376 1 0.997577
1.01607 1.01838 1 0.997733
1.01414 1.01631 1 0.997862
0.998763 1 1 0.998763
0.999267 1 1.00067 0.998599
0.999596 1 1 0.999596
0.99982 1 1.00093 0.998886
1.02179 1.02437 1 0.997479
1.02189 1.0244 1 0.997554
1.02551 1.028 1 0.99758
1.02262 1.02497 0.999985 0.997728
1.01825 1.02053 1 0.997762
1.01997 1.02213 1 0.997887
0.998685 1 1 0.998685
1.01487 1.01695 1 0.997951
0.998308 1.00017 1 0.998138
1.00521 1.00749 1.00018 0.997565
1.01344 1.01594 1 0.997536
1.01339 1.01553 1 0.997892
0.99969 1 1 0.99969
0.999201 1 1.00017 0.999028
0.998595 1 1 0.998595
1.00014 1 1.00149 0.99865
0.998936 1 1.00037 0.998566
1 1 1 1
1.00633 1.00868 1 0.997667
0.999679 1 1 0.999679
0.999245 1 1 0.999245
0.999325 1 1.00039 0.99894
1.0007 1.00277 1 0.997939
1.0132 1.01568 1 0.997558
0.999043 1 1.00051 0.998537
1.00149 1.00158 1.00193 0.997979
1.00216 1.00422 1 0.997949
1.00392 1.0059 1 0.998032
1 1 1 1
0.999797 1 1 0.999797
0.998829 1 1.00007 0.998759
0.999464 1 1.00031 0.999155
0.999859 1 1.0012 0.998657
1.01646 1.01899 1 0.99752
1.00794 1.01024 1 0.997723
1.01418 1.01667 1 0.99755
1.00033 1.00002 1.00213 0.998182
1.007 1.00917 1 0.997858
1.00278 1.00408 1.00096 0.997745
0.999846 1 1 0.999846
0.999337 1 1 0.999337
0.99893 1 1.00048 0.998454
1.0001 1 1.00126 0.998842
0.999594 1 1.00106 0.998534
1.01728 1.01975 1 0.997583
1.00979 1.01214 1 0.997678
1.01306 1.01537 1 0.997717
1.00172 1 1.00379 0.997937
1.00418 1.0066 1 0.9976
0.999875 1 1 0.999875
0.999463 1 1 0.999463
0.999509 1 1 0.999509
0.99931 1 1 0.99931
0.999537 1 1 0.999537
0.9999 1 1 0.9999
0.999899 1 1 0.999899
1 1 1 1
0.999892 1 1 0.999892
1 1 1 1
1 1 1 1
1 1 1 1
1 1 1 1
1 1 1 1
1 1 1 1
0.999988 1 1 0.999988
1 1 1 1
1 1 1 1
0.999959 1 1 0.999959
1 1 1 1
1.00843 1.01082 1 0.997634
1.00989 1.01233 1 0.997582
1.02085 1.02335 1 0.997559
1.02404 1.02656 1 0.997542
1.00921 1.01175 1 0.997489
0.998173 1.00024 1 0.997937
1.00877 1.01132 1 0.997478
1.02326 1.02582 1 0.9975
1.02342 1.02594 1 0.997546
1.02777 1.03037 0.9998 0.997676
1.01887 1.02138 1 0.997544
1.02332 1.02561 1 0.997767
1.02248 1.02507 1 0.997474
1.02688 1.02968 0.999672 0.997611
1.02612 1.02844 1 0.997742
1.02667 1.02974 0.999233 0.997785
1.02079 1.02315 1 0.997688
1.02392 1.02615 0.99991 0.997924
1.00869 1.01121 1 0.997506
1.00837 1.01075 1 0.997654
1.02092 1.02344 1 0.997535
1.02035 1.02285 1 0.99756
0.999082 1 1 0.999082
0.998829 1.00036 1 0.998467
1.00103 1.00296 1.00018 0.997899
1.01411 1.01648 1 0.997671
1.01944 1.0217 1 0.997786
1.01608 1.01838 1 0.997736
1.01146 1.01394 1 0.997547
1.0135 1.01565 1 0.997883
0.998789 1 1.00002 0.998766
0.999251 1 1.00067 0.998581
0.999592 1 1 0.999592
0.999718 1 1.00081 0.998909
1.02179 1.02437 1 0.997479
1.02155 1.02407 1 0.997541
1.02543 1.0279 1 0.997597
1.02212 1.02447 0.999998 0.997714
0.99868 1 1 0.99868
0.998508 1.0003 1.00003 0.998182
1.00545 1.00752 1.00039 0.997557
1.01798 1.02029 1 0.997736
1.02005 1.02216 1 0.997934
1.01298 1.0155 1 0.997524
1.01484 1.01692 1 0.997954
1.01458 1.01669 1 0.997932
0.998593 1 1 0.998593
0.99874 1 1.00017 0.998568
1.00055 1 1.00191 0.998644
0.999658 1 1 0.999658
0.999107 1 1.00006 0.99905
1.02631 1.02899 0.999806 0.997588
1.0259 1.02836 0.999967 0.997647
1.0211 1.02364 0.999618 0.997906
1.01744 1.01952 1 0.997966
0.998478 1 1 0.998478
1.01708 1.01902 1 0.998093
0.998264 1.00005 1.00029 0.997925
1.00804 1.01023 1.00051 0.99733
1.013 1.01553 1 0.997501
0.99971 1 1 0.99971
0.999234 1 1 0.999234
0.999462 1 1.00065 0.998817
0.998555 1 1 0.998555
1.00118 1 1.0027 0.99848
0.998508 1 1 0.998508
1 1 1 1
0.999804 1 1 0.999804
1.01674 1.01928 1 0.997515
0.999368 1 1.00021 0.999156
0.998822 1 1.00006 0.99876
1.00028 1 1.00164 0.998635
1.00776 1.01006 1 0.997723
1.01402 1.01652 1 0.997542
1.00047 1 1.00229 0.998186
1.0019 1.00337 1.00077 0.997765
1.00855 1.0107 1 0.997872
0.99985 1 1 0.99985
0.999339 1 1 0.999339
0.998873 1 1.00041 0.99846
1.00042 1 1.00158 0.99884
0.999797 1 1.00127 0.998524
1.01735 1.01982 1 0.997577
1.01031 1.01267 1 0.997669
1.01293 1.01522 1 0.997741
1.00115 1 1.00324 0.997912
1.00345 1.00584 1.00006 0.997569
0.999444 1 1 0.999444
0.999474 1 1.00049 0.998983
1.00028 1 1.002 0.998286
1.00087 1 1.00229 0.998577
0.999411 1 1.001 0.998417
1.01907 1.02116 1 0.997951
1.00918 1.01162 1 0.997593
1.01073 1.01299 1 0.997765
1.00329 1.00121 1.00433 0.997752
1.0005 1.00314 1 0.997365
0.999878 1 1 0.999878
0.99948 1 1 0.99948
0.99922 1 1 0.99922
0.999489 1 1 0.999489
0.999537 1 1 0.999537
0.999281 1 1 0.999281
0.999138 1 1 0.999138
0.999259 1 1 0.999259
0.999541 1 1 0.999541
0.999898 1 1 0.999898
0.9999 1 1 0.9999
1 1 1 1
0.9999 1 1 0.9999
1 1 1 1
1 1 1 1
1 1 1 1
1 1 1 1
1 1 1 1
1 1 1 1
0.999998 1 1 0.999998
1 1 1 1
0.999983 1 1 0.999983
1 1 1 1
1 1 1 1
1.01921 1.02173 1 0.997539
1.02327 1.02578 1 0.997546
1.02363 1.0259 1 0.997782
1.02688 1.02971 0.999556 0.9977
1.02315 1.02572 1 0.997493
1.00873 1.01128 1 0.997479
1.02272 1.02532 1 0.997461
1.02722 1.02988 0.999816 0.997602
1.02589 1.02823 1 0.997722
1.02623 1.0295 0.999026 0.997798
1.02019 1.02255 1 0.997688
1.0234 1.02557 0.999921 0.99796
1.0264 1.0289 1 0.997571
1.02697 1.03129 0.998027 0.997772
1.02562 1.02858 0.999217 0.997904
1.02164 1.02366 1 0.998023
1.02176 1.02434 1 0.99748
1.0212 1.02373 1 0.997529
1.02531 1.02777 1 0.997614
1.02165 1.02401 1 0.997701
0.998675 1 1 0.998675
0.998469 1.00024 1 0.998226
1.00561 1.00749 1.00058 0.99755
1.01767 1.02 1 0.997711
1.02014 1.02221 1 0.997981
1.01489 1.01697 1 0.997956
1.01259 1.01512 1 0.997512
1.01567 1.01774 1 0.997972
0.998592 1 1 0.998592
0.998569 1 1 0.998569
1.00128 1 1.00265 0.998638
0.999626 1 1 0.999626
0.999071 1 1 0.999071
1.02628 1.02885 0.99991 0.997591
1.02611 1.02855 0.999982 0.99765
1.02097 1.02349 0.999644 0.997897
0.998472 1 1 0.998472
0.998969 1.00075 1.00026 0.997966
1.00758 1.00952 1.00076 0.99732
1.01796 1.02004 1 0.997955
1.01267 1.01514 1 0.997567
1.01598 1.01794 1 0.998075
0.99972 1 1 0.99972
0.998549 1 1 0.998549
0.998564 1 1 0.998564
1.00103 1 1.00256 0.998467
0.999375 1 1.00055 0.998827
0.999209 1 1 0.999209
1.02677 1.02986 0.999324 0.997666
1.02518 1.02984 0.997652 0.997815
1.01902 1.02245 0.998649 0.997994
1.02233 1.02459 0.999655 0.998141
0.998344 1 1 0.998344
1.01405 1.01628 1 0.997805
1.00058 1.00142 1.00165 0.997523
1.00545 1.00724 1.00104 0.997188
0.999801 1 1 0.999801
0.999356 1 1 0.999356
0.998967 1 1 0.998967
1.00129 1 1.00274 0.998552
0.998468 1 1 0.998468
0.999649 1 1.00127 0.998377
0.999855 1 1 0.999855
0.999342 1 1 0.999342
1.01754 1.02002 1 0.997572
1.00046 1 1.00163 0.998837
0.998736 1 1.00027 0.998466
0.999913 1 1.0014 0.998514
1.01105 1.01342 1 0.99766
1.01303 1.01529 1 0.997764
1.00061 1 1.00273 0.997887
1.00287 1.00507 1.00027 0.997538
0.999446 1 1 0.999446
0.999232 1 1.00024 0.998992
1.00028 1 1.00198 0.998303
1.00113 1 1.00255 0.99858
0.998947 1 1.00048 0.998472
1.01915 1.02121 1 0.997979
1.00873 1.01117 1 0.997595
1.01189 1.01408 1 0.99784
1.00304 1.00075 1.00458 0.997722
1.00125 1.00391 1.00003 0.997322
0.999156 1 1 0.999156
0.999767 1 1.00109 0.998682
1.00192 1 1.00378 0.998142
0.999836 1 1.00153 0.998311
1.02185 1.02791 0.995931 0.998167
1.01568 1.01778 0.999872 0.998061
1.00573 1.00835 1 0.997405
1.00302 1.0014 1.00426 0.997375
0.999496 1 1 0.999496
0.999233 1 1 0.999233
0.999087 1 1 0.999087
0.999537 1 1 0.999537
0.999252 1 1 0.999252
0.99954 1 1 0.99954
0.99912 1 1 0.99912
0.999271 1 1 0.999271
0.999016 1 1 0.999016
0.999097 1 1 0.999097
0.999249 1 1 0.999249
0.99953 1 1 0.99953
0.999892 1 1 0.999892
0.999897 1 1 0.999897
1 1 1 1
0.999901 1 1 0.999901
1 1 1 1
1 1 1 1
1 1 1 1
1 1 1 1
1 1 1 1
1 1 1 1
1 1 1 1
1 1 1 1
0.999996 1 1 0.999996
1 1 1 1
1 1 1 1
1.01956 1.02192 1 0.997688
1.02564 1.028 1 0.997701
1.02288 1.025 0.999932 0.997996
1.02579 1.0292 0.998876 0.997812
1.02758 1.03006 1 0.997594
1.02298 1.0256 1 0.997449
1.0263 1.02888 0.999918 0.997578
1.02611 1.03022 0.998241 0.997763
1.02546 1.02858 0.999056 0.997905
1.02305 1.02508 1 0.998024
1.02662 1.03051 0.998512 0.997713
1.02703 1.03331 0.995975 0.997943
1.0268 1.03053 0.998326 0.998045
1.02624 1.02872 1 0.997594
1.0263 1.02872 1 0.997654
1.0208 1.02328 0.999682 0.997888
0.998465 1 1 0.998465
0.999779 1.0016 1.00018 0.998007
1.00693 1.00879 1.00085 0.997309
1.01845 1.02055 1 0.997945
1.01504 1.01701 1 0.998058
1.01266 1.01506 1 0.997633
0.998543 1 1 0.998543
0.998619 1 1 0.998619
1.00073 1 1.00228 0.998454
0.99973 1 1 0.99973
0.999149 1 1.00031 0.998837
0.999184 1 1 0.999184
1.02735 1.03031 0.999457 0.997672
1.02587 1.03004 0.998128 0.997822
1.01916 1.02235 0.998897 0.997985
0.998531 1.0002 1 0.998333
1.00067 1.00167 1.0014 0.997607
1.0048 1.00669 1.0009 0.997221
1.02216 1.02437 0.999686 0.998152
1.01471 1.01695 1 0.997794
0.999836 1 1 0.999836
0.999356 1 1 0.999356
0.998486 1 1 0.998486
1.00026 1 1.00182 0.99844
1.00122 1 1.00266 0.998567
0.998946 1 1 0.998946
1.02755 1.03284 0.997011 0.99786
1.01903 1.02716 0.994118 0.997955
1.02009 1.02433 0.997677 0.998181
1.0187 1.02085 0.999715 0.99818
0.999181 1.00017 1.00088 0.998133
1.00471 1.00602 1.0014 0.997295
1.00265 1.00268 1.00264 0.997329
0.999917 1 1 0.999917
0.999583 1 1 0.999583
0.999408 1 1 0.999408
0.999041 1 1 0.999041
0.999374 1 1.00066 0.998714
1.0007 1 1.00227 0.998438
0.99851 1 1 0.99851
1.01007 1 1.01152 0.998568
0.999448 1 1 0.999448
0.999138 1 1.00014 0.999002
1.01911 1.02115 1 0.998007
1.00164 1 1.00306 0.998584
1.00047 1 1.00215 0.998321
0.998562 1 1.00004 0.998527
1.00807 1.01049 1 0.997598
1.01297 1.01509 1 0.997915
1.00292 1.00042 1.00482 0.997692
1.00204 1.00477 1 0.997279
0.99914 1 1 0.99914
1.00009 1 1.0014 0.998693
1.00232 1.00001 1.00415 0.998165
0.999648 1 1.00131 0.998337
1.02313 1.02884 0.996268 0.998177
1.01529 1.01734 0.999949 0.99803
1.00661 1.00919 1 0.997444
1.00286 1.00176 1.00377 0.997337
0.998997 1 1.00003 0.998962
1.02092 1.02928 0.993692 0.998168
1.00075 1 1.0023 0.998455
1.00062 1.00003 1.00268 0.99792
1.02062 1.02388 0.998541 0.998267
1.00648 1.00897 1 0.997525
1.00431 1.00388 1.00323 0.997206
0.999246 1 1 0.999246
0.999084 1 1 0.999084
0.998969 1 1 0.998969
0.99954 1 1 0.99954
0.999283 1 1 0.999283
0.999102 1 1 0.999102
0.999528 1 1 0.999528
0.999251 1 1 0.999251
0.999 1 1 0.999
0.999118 1 1 0.999118
0.998923 1 1 0.998923
0.99898 1 1 0.99898
0.999098 1 1 0.999098
0.99924 1 1 0.99924
0.999506 1 1 0.999506
0.999884 1 1 0.999884
0.999891 1 1 0.999891
1 1 1 1
0.999896 1 1 0.999896
1 1 1 1
1 1 1 1
1 1 1 1
1 1 1 1
1 1 1 1
0.999943 1 1 0.999943
1 1 1 1
1 1 1 1
1 1 1 1
1 1 1 1
1 1 1 1
1 1 1 1
1.02447 1.0265 1 0.998025
1.02533 1.0286 0.998906 0.997906
1.02525 1.02919 0.998417 0.997754
1.02623 1.02887 0.99985 0.997584
1.02644 1.03041 0.998412 0.997732
1.02743 1.03346 0.996223 0.997932
1.02638 1.03044 0.998004 0.998058