# vtk DataFile Version 2.0
Wound Healing Simulation
ASCII
DATASET UNSTRUCTURED_GRID
POINTS 3012 float
69.9759 18.75 4
67.2507 60.3285 4
69.976 18.75 2
73.0099 25.446 4
71.1327 20.9142 4
68.6801 16.6661 4
67.8269 19.9173 3.99136
67.2507 60.3286 2
71.1327 54.0858 4
68.6801 58.3339 4
65.6939 62.2254 4
65.3133 59.0089 3.99258
74.6784 42.3946 4
73.7221 47.2057 4
69.9759 18.75 0
73.0099 25.446 2
68.6801 16.6661 2
71.1327 20.9142 2
67.8268 19.9171 2
74.6792 32.6053 4
73.7222 27.7943 4
72.1454 23.1494 4
70.6166 26.2159 3.98962
68.8875 21.9501 3.99074
67.2507 14.6715 4
66.6382 17.9631 3.99207
65.8045 21.0115 3.98704
67.2507 60.3285 0
71.1327 54.0858 2
68.6801 58.3339 2
65.694 62.2255 2
65.3133 59.009 2
72.1454 51.8506 4
69.9759 56.25 4
68.8384 53.1209 3.99081
64.0165 64.0165 4
66.6118 57.1422 3.99219
63.8867 60.7723 3.99297
63.5051 57.7881 3.98784
60.3285 67.2507 4
74.6792 42.3947 2
73.7222 47.2057 2
74.9194 39.9526 4
74.2788 44.8158 4
72.1711 42.0871 3.98932
73.0099 49.554 4
71.2522 46.6018 3.98983
73.0099 25.446 0
71.1327 20.9142 0
68.6801 16.6661 0
67.8269 19.9173 0.00863847
74.6792 32.6053 2
73.7222 27.7943 2
67.2508 14.6715 2
72.1455 23.1494 2
70.6166 26.2158 2
66.6382 17.963 2
68.8874 21.95 2
65.8045 21.0115 2
74.9197 35.0474 4
74.2794 30.1841 4
72.1874 32.9407 3.98938
71.2807 28.4274 3.98932
69.8178 24.0531 3.99017
68.3558 26.9434 3.9856
66.7708 22.9215 3.98673
65.694 12.7746 4
65.3247 16.0956 3.99261
64.72 19.179 3.98745
63.9006 22.0155 3.98529
71.1327 54.0858 0
65.6939 62.2254 0
68.6801 58.3339 0
65.3133 59.0089 0.00742061
72.1455 51.8506 2
69.9759 56.25 2
68.8385 53.1211 2
64.0165 64.0165 2
66.6119 57.1424 2
63.8868 60.7725 2
63.5051 57.7883 2
62.2254 65.694 4
58.8937 65.418 3.99321
69.7715 50.9954 3.99027
67.7853 55.176 3.99158
66.6586 52.2212 3.98693
62.3368 62.4326 3.99317
64.6671 56.047 3.98774
62.2058 59.4205 3.98834
61.8321 56.7036 3.98613
58.3339 68.6801 4
60.3285 67.2508 2
73.7221 47.2057 0
74.6784 42.3946 0
74.9197 39.9526 2
74.2794 44.8159 2
72.1711 42.087 2
73.0099 49.554 2
71.2522 46.6018 2
75 37.5 4
72.4082 39.8026 3.98909
71.7855 44.3555 3.98965
69.8138 41.7924 3.98522
70.578 48.8185 3.98997
68.9224 46.0211 3.98575
74.6792 32.6053 0
73.7222 27.7943 0
67.2507 14.6715 0
72.1454 23.1494 0
70.6166 26.2159 0.01038
68.8875 21.9501 0.00926001
66.6382 17.9631 0.00793041
65.8045 21.0115 0.0129633
74.9197 35.0474 2
74.2794 30.1841 2
72.1874 32.9407 2
71.2807 28.4273 2
65.694 12.7745 2
65.3247 16.0955 2
69.8177 24.053 2
68.3557 26.9434 2
64.72 19.1789 2
66.7708 22.9215 2
63.9005 22.0156 2
72.4159 35.2223 3.98917
71.8065 30.673 3.98947
69.8491 33.2646 3.98489
68.9751 29.0317 3.985
67.6201 24.9022 3.98628
66.2104 27.6225 3.98382
64.0165 10.9835 4
64.7715 23.8126 3.98505
63.8909 14.3209 3.99287
63.5176 17.43 3.988
62.9185 20.2985 3.98558
62.1123 22.9183 3.98446
60.6841 11.0931 3.99299
57.6124 11.4369 3.9885
72.1454 51.8506 0
69.9759 56.25 0
68.8384 53.1209 0.00918792
64.0165 64.0165 0
63.8867 60.7723 0.00702895
66.6118 57.1422 0.00780509
63.5051 57.7881 0.0121598
62.2255 65.694 2
58.8938 65.4182 2
69.7715 50.9955 2
67.7853 55.1762 2
66.6586 52.2211 2
62.3368 62.4328 2
64.6672 56.0471 2
62.2059 59.4207 2
61.8322 56.7037 2
60.6687 63.9815 3.99318
57.0241 66.7382 3.99328
57.5575 63.7006 3.98885
67.5172 50.1867 3.98646
65.7099 54.1872 3.98747
64.554 51.4035 3.98499
60.7746 60.9521 3.9888
62.8318 55.0897 3.98628
60.6647 58.1811 3.98618
60.3405 55.8129 3.98531
56.25 69.9759 4
58.3339 68.6801 2
60.3285 67.2507 0
58.921 9.65188 3.99304
62.2254 9.30607 4
73.0099 49.554 0
74.2788 44.8158 0
71.2522 46.6018 0.0101707
72.1711 42.0871 0.0106839
74.9194 39.9526 0
75 37.5 2
72.4081 39.8024 2
71.7855 44.3555 2
69.8138 41.7923 2
70.578 48.8186 2
68.9224 46.021 2
72.4915 37.5113 3.98909
70.0505 39.6583 3.98469
69.4404 43.912 3.98555
67.6148 41.5025 3.98337
68.276 48.1153 3.98608
66.7277 45.4501 3.98412
74.9197 35.0474 0
74.2794 30.1841 0
72.1874 32.9407 0.010616
71.2807 28.4274 0.0106762
65.694 12.7746 0
65.3247 16.0956 0.00738581
69.8178 24.0531 0.00982994
68.3558 26.9434 0.0144041
66.7708 22.9215 0.0132687
64.72 19.179 0.0125489
63.9006 22.0155 0.0147143
72.4159 35.2224 2
71.8065 30.673 2
69.849 33.2647 2
68.975 29.0317 2
64.0165 10.9835 2
63.8909 14.3207 2
63.5177 17.4298 2
67.6201 24.9021 2
66.2102 27.6224 2
62.9185 20.2986 2
64.7714 23.8126 2
62.1121 22.9185 2
60.6842 11.093 2
57.6124 11.4367 2
70.067 35.3897 3.98481
69.4762 31.1444 3.98491
67.6717 33.5853 3.98298
66.7881 29.6129 3.98318
65.5397 25.6844 3.98454
64.1691 28.2393 3.98317
62.3422 12.6498 3.99296
62.8784 24.6148 3.98439
62.2014 15.7686 3.98838
61.8223 18.6623 3.9861
61.2342 21.315 3.98441
60.4508 23.6986 3.98429
59.2468 12.7665 3.98852
55.874 10.2249 3.98863
56.4064 13.0992 3.98577
69.7715 50.9954 0.00972972
62.2254 65.694 0
58.8937 65.418 0.00679257
67.7853 55.176 0.00842105
66.6586 52.2212 0.0130708
62.3368 62.4326 0.00683033
62.2058 59.4205 0.0116614
64.6671 56.047 0.0122595
61.8321 56.7036 0.0138726
60.6688 63.9817 2
57.0242 66.7384 2
57.5576 63.7009 2
67.5173 50.1867 2
65.71 54.1872 2
64.554 51.4034 2
60.7746 60.9524 2
62.8319 55.0897 2
60.6648 58.1812 2
60.3406 55.8129 2
55.0696 67.9345 3.99336
59.2198 62.3778 3.98885
55.8035 64.9164 3.98889
56.3279 62.1018 3.98626
65.3492 49.4239 3.98463
63.7205 53.3128 3.9858
62.4654 50.6755 3.98398
59.337 59.5757 3.98648
61.0931 54.3358 3.98551
59.2982 57.0386 3.98489
59.257 55.2129 3.98545
48.1018 68.5812 3.98942
50.9477 69.9333 3.99353
54.0858 71.1327 4
56.25 69.976 2
58.3339 68.6801 0
57.0581 8.33227 3.99315
60.3285 7.74928 4
58.9211 9.65173 2
62.2255 9.30602 2
70.578 48.8185 0.0100295
71.7855 44.3555 0.0103526
68.9224 46.0211 0.0142527
69.8138 41.7924 0.0147838
72.4082 39.8026 0.0109057
75 37.5 0
72.4914 37.5112 2
70.0503 39.6583 2
69.4404 43.9119 2
67.6146 41.5025 2
68.276 48.1152 2
66.7276 45.4501 2
70.1384 37.5208 3.98458
67.8512 39.5144 3.98297
67.2414 43.4775 3.98375
65.5811 41.2166 3.98278
66.0866 47.4309 3.98443
64.678 44.8621 3.98352
72.4159 35.2223 0.0108284
71.8065 30.673 0.010532
69.8491 33.2646 0.0151105
68.9751 29.0317 0.0150031
64.0165 10.9835 0
63.8909 14.3209 0.00713023
63.5176 17.43 0.0119979
67.6201 24.9022 0.0137245
66.2104 27.6225 0.0161796
64.7715 23.8126 0.0149527
62.9185 20.2985 0.0144232
62.1123 22.9183 0.0155357
60.6841 11.0931 0.00701378
57.6124 11.4369 0.0114989
70.0669 35.3897 2
69.4761 31.1444 2
67.6715 33.5852 2
66.7879 29.6129 2
62.3422 12.6496 2
62.2014 15.7684 2
61.8224 18.6623 2
65.5396 25.6844 2
64.1688 28.2393 2
61.2341 21.3152 2
62.8781 24.6149 2
60.4505 23.6989 2
59.2468 12.7663 2
56.4064 13.099 2
55.874 10.2247 2
67.887 35.5443 3.98308
67.2815 31.6146 3.98306
65.721 33.9203 3.98238
64.6859 30.1791 3.98219
63.5606 26.3947 3.98391
62.2868 28.7582 3.98346
60.7764 14.2092 3.98852
61.0728 25.3113 3.98428
60.6179 17.1071 3.98643
60.2348 19.7899 3.98493
59.6825 22.2283 3.98363
59.008 24.2889 3.9846
54.0369 9.12912 3.98892
57.9121 14.3157 3.9861
54.7872 12.0006 3.9856
55.3145 14.63 3.98463
67.5172 50.1867 0.0135355
57.0241 66.7382 0.00672419
60.6687 63.9815 0.0068224
57.5575 63.7006 0.0111523
65.7099 54.1872 0.012527
64.554 51.4035 0.0150133
60.7746 60.9521 0.0112013
60.6647 58.1811 0.0138219
62.8318 55.0897 0.0137244
60.3405 55.8129 0.0146871
55.0697 67.9348 2
59.2199 62.3781 2
55.8035 64.9167 2
56.3279 62.1021 2
65.3492 49.4239 2
63.7205 53.3128 2
62.4653 50.6753 2
59.3371 59.5759 2
61.0932 54.3358 2
59.2984 57.0387 2
59.2572 55.2128 2
53.0416 69.0019 3.99345
53.9654 66.0176 3.98898
57.8828 60.8854 3.9864
54.6837 63.2155 3.98626
55.2134 60.6298 3.98496
63.2196 48.6817 3.98389
61.7621 52.6008 3.98488
60.3045 50.047 3.98339
58.0237 58.2831 3.98526
59.346 53.9776 3.98485
58.1387 55.8426 3.98375
50.1081 67.8596 3.98926
47.4622 66.5841 3.98655
46.0558 69.1603 3.98957
48.1018 68.5815 2
48.8021 70.7243 3.99359
50.9478 69.9335 2
51.8506 72.1454 4
54.0858 71.1327 2
56.25 69.9759 0
55.1024 7.13724 3.99328
58.3339 6.31992 4
57.0581 8.3321 2
60.3286 7.74926 2
58.921 9.65188 0.00696239
62.2254 9.30607 0
68.276 48.1153 0.0139208
69.4404 43.912 0.0144518
66.7277 45.4501 0.0158791
67.6148 41.5025 0.0166309
70.0505 39.6583 0.0153148
72.4915 37.5113 0.0109094
70.1382 37.5208 2
67.851 39.5144 2
67.2413 43.4775 2
65.5808 41.2167 2
66.0865 47.4309 2
64.6778 44.8621 2
67.9473 37.5213 3.98275
65.8122 39.3734 3.98263
65.2015 43.0357 3.98299
63.7881 40.9378 3.98281
63.9914 46.7339 3.98377
62.8405 44.2328 3.98372
70.067 35.3897 0.0151942
69.4762 31.1444 0.0150903
67.6717 33.5853 0.0170196
66.7881 29.6129 0.0168177
62.3422 12.6498 0.00704275
62.2014 15.7686 0.0116175
61.8223 18.6623 0.013898
65.5397 25.6844 0.0154599
64.1691 28.2393 0.0168262
62.8784 24.6148 0.0156102
61.2342 21.315 0.0155942
60.4508 23.6986 0.0157099
59.2468 12.7665 0.0114754
56.4064 13.0992 0.0142294
55.874 10.2249 0.0113715
67.8868 35.5442 2
67.2813 31.6145 2
65.7207 33.9202 2
64.6855 30.179 2
60.7764 14.209 2
60.618 17.107 2
60.2349 19.79 2
63.5604 26.3947 2
62.2863 28.7582 2
59.6823 22.2286 2
61.0724 25.3115 2
59.0076 24.2893 2
57.9122 14.3155 2
55.3146 14.63 2
54.037 9.12878 2
54.7872 12.0003 2
65.9002 35.6629 3.98236
65.2095 32.1444 3.98203
64.3129 34.2424 3.98146
62.6252 30.6198 3.98231
61.6806 27.0489 3.98383
60.8851 29.1189 3.98464
59.3134 15.6506 3.98634
59.3644 25.7672 3.98509
59.131 18.3314 3.98556
58.756 20.8246 3.98386
58.3105 23.0598 3.98305
58.0007 24.6322 3.98546
52.1116 8.14817 3.98922
53.0579 11.008 3.98582
56.6791 15.7238 3.98524
53.8108 13.6678 3.98402
54.3786 15.9812 3.9843
55.0696 67.9345 0.00664026
65.3492 49.4239 0.0153653
55.8035 64.9164 0.0111053
59.2198 62.3778 0.0111465
56.3279 62.1018 0.0137388
63.7205 53.3128 0.0142037
62.4654 50.6755 0.0160201
59.337 59.5757 0.0135161
59.2982 57.0386 0.0151118
61.0931 54.3358 0.0144858
59.257 55.2129 0.0145512
53.0417 69.0021 2
53.9655 66.0179 2
57.8829 60.8856 2
54.6837 63.2158 2
55.2134 60.63 2
63.2195 48.6816 2
61.7621 52.6007 2
60.3044 50.0467 2
58.0238 58.2833 2
59.3462 53.9775 2
58.1389 55.8425 2
52.069 67.0033 3.9891
52.9525 64.2242 3.98624
56.6516 59.5066 3.98531
[...]
POINT_DATA 3012
SCALARS Jp_lamdaP float 4
LOOKUP_TABLE default
1 1 1 1
1 1 1 1
1 1 1 1
1 1 1 1
1 1 1 1
1 1 1 1
0.999994 1 1 0.999994
1 1 1 1
1 1 1 1
1 1 1 1
1 1 1 1
1 1 1 1
1 1 1 1
1 1 1 1
1 1 1 1
1 1 1 1
1 1 1 1
1 1 1 1
0.999995 1 1 0.999995
1 1 1 1
1 1 1 1
1 1 1 1
0.999985 1 1 0.999985
0.999993 1 1 0.999993
1 1 1 1
0.999996 1 1 0.999996
0.999972 1 1 0.999972
1 1 1 1
1 1 1 1
1 1 1 1
1 1 1 1
1 1 1 1
1 1 1 1
1 1 1 1
1 1 1 1
1 1 1 1
1 1 1 1
1 1 1 1
0.999983 1 1 0.999983
1 1 1 1
1 1 1 1
1 1 1 1
1 1 1 1
1 1 1 1
0.999991 1 1 0.999991
1 1 1 1
0.999996 1 1 0.999996
1 1 1 1
1 1 1 1
1 1 1 1
0.999995 1 1 0.999995
1 1 1 1
1 1 1 1
1 1 1 1
1 1 1 1
0.999986 1 1 0.999986
0.999997 1 1 0.999997
0.999993 1 1 0.999993
0.999971 1 1 0.999971
1 1 1 1
1 1 1 1
0.999991 1 1 0.999991
0.999981 1 1 0.999981
0.99999 1 1 0.99999
0.999946 1 1 0.999946
0.99996 1 1 0.99996
1 1 1 1
0.999998 1 1 0.999998
0.999979 1 1 0.999979
0.999921 1 1 0.999921
1 1 1 1
1 1 1 1
1 1 1 1
1 1 1 1
1 1 1 1
1 1 1 1
1 1 1 1
1 1 1 1
1 1 1 1
1 1 1 1
0.999983 1 1 0.999983
1 1 1 1
1 1 1 1
0.999999 1 1 0.999999
1 1 1 1
0.999955 1 1 0.999955
1 1 1 1
0.999976 1 1 0.999976
0.999988 1 1 0.999988
0.999941 1 1 0.999941
1 1 1 1
1 1 1 1
1 1 1 1
1 1 1 1
1 1 1 1
1 1 1 1
0.999991 1 1 0.999991
1 1 1 1
0.999996 1 1 0.999996
1 1 1 1
0.999989 1 1 0.999989
0.999993 1 1 0.999993
0.999926 1 1 0.999926
0.999997 1 1 0.999997
0.999934 1 1 0.999934
1 1 1 1
1 1 1 1
1 1 1 1
1 1 1 1
0.999986 1 1 0.999986
0.999993 1 1 0.999993
0.999997 1 1 0.999997
0.99997 1 1 0.99997
1 1 1 1
1 1 1 1
0.999985 1 1 0.999985
0.999982 1 1 0.999982
1 1 1 1
0.999999 1 1 0.999999
0.99999 1 1 0.99999
0.999943 1 1 0.999943
0.999978 1 1 0.999978
0.999962 1 1 0.999962
0.999921 1 1 0.999921
0.99999 1 1 0.99999
0.99998 1 1 0.99998
0.999928 1 1 0.999928
0.999933 1 1 0.999933
0.999951 1 1 0.999951
0.999897 1 1 0.999897
1 1 1 1
0.999915 1 1 0.999915
1 1 1 1
0.999985 1 1 0.999985
0.999927 1 1 0.999927
0.999899 1 1 0.999899
1 1 1 1
0.999991 1 1 0.999991
1 1 1 1
1 1 1 1
1 1 1 1
1 1 1 1
1 1 1 1
1 1 1 1
0.999984 1 1 0.999984
1 1 1 1
1 1 1 1
0.999999 1 1 0.999999
1 1 1 1
0.999955 1 1 0.999955
1 1 1 1
0.999977 1 1 0.999977
0.999989 1 1 0.999989
0.999939 1 1 0.999939
1 1 1 1
1 1 1 1
0.999993 1 1 0.999993
0.999945 1 1 0.999945
0.999966 1 1 0.999966
0.999908 1 1 0.999908
0.999992 1 1 0.999992
0.999931 1 1 0.999931
0.999945 1 1 0.999945
0.999919 1 1 0.999919
1 1 1 1
1 1 1 1
1 1 1 1
1 1 1 1
1 1 1 1
1 1 1 1
1 1 1 1
0.999997 1 1 0.999997
0.999992 1 1 0.999992
1 1 1 1
1 1 1 1
0.99999 1 1 0.99999
0.999994 1 1 0.999994
0.999926 1 1 0.999926
0.999998 1 1 0.999998
0.999934 1 1 0.999934
0.999989 1 1 0.999989
0.999925 1 1 0.999925
0.999929 1 1 0.999929
0.999891 1 1 0.999891
0.999939 1 1 0.999939
0.999895 1 1 0.999895
1 1 1 1
1 1 1 1
0.999978 1 1 0.999978
0.999982 1 1 0.999982
1 1 1 1
1 1 1 1
0.99999 1 1 0.99999
0.99994 1 1 0.99994
0.999965 1 1 0.999965
0.999977 1 1 0.999977
0.999921 1 1 0.999921
0.99999 1 1 0.99999
0.99998 1 1 0.99998
0.999921 1 1 0.999921
0.999935 1 1 0.999935
1 1 1 1
1 1 1 1
0.999985 1 1 0.999985
0.999951 1 1 0.999951
0.999893 1 1 0.999893
0.999926 1 1 0.999926
0.999917 1 1 0.999917
0.999899 1 1 0.999899
1 1 1 1
0.999991 1 1 0.999991
0.999923 1 1 0.999923
0.999928 1 1 0.999928
0.999887 1 1 0.999887
0.999881 1 1 0.999881
0.99991 1 1 0.99991
0.999877 1 1 0.999877
1 1 1 1
0.999896 1 1 0.999896
0.999989 1 1 0.999989
0.999934 1 1 0.999934
0.999905 1 1 0.999905
0.999893 1 1 0.999893
0.999991 1 1 0.999991
0.999992 1 1 0.999992
0.999947 1 1 0.999947
0.999999 1 1 0.999999
1 1 1 1
1 1 1 1
1 1 1 1
0.999955 1 1 0.999955
1 1 1 1
0.999989 1 1 0.999989
0.999977 1 1 0.999977
0.999936 1 1 0.999936
1 1 1 1
1 1 1 1
0.999993 1 1 0.999993
0.999945 1 1 0.999945
0.999967 1 1 0.999967
0.999908 1 1 0.999908
0.999992 1 1 0.999992
0.999932 1 1 0.999932
0.999945 1 1 0.999945
0.999916 1 1 0.999916
1 1 1 1
0.999993 1 1 0.999993
0.999994 1 1 0.999994
0.999953 1 1 0.999953
0.999902 1 1 0.999902
0.999921 1 1 0.999921
0.999887 1 1 0.999887
0.99995 1 1 0.99995
0.999909 1 1 0.999909
0.999914 1 1 0.999914
0.999902 1 1 0.999902
0.999995 1 1 0.999995
1 1 1 1
1 1 1 1
1 1 1 1
1 1 1 1
1 1 1 1
1 1 1 1
1 1 1 1
1 1 1 1
0.999998 1 1 0.999998
0.999995 1 1 0.999995
0.999934 1 1 0.999934
0.999926 1 1 0.999926
0.99999 1 1 0.99999
1 1 1 1
0.999989 1 1 0.999989
0.999925 1 1 0.999925
0.999929 1 1 0.999929
0.999891 1 1 0.999891
0.999939 1 1 0.999939
0.999895 1 1 0.999895
0.999924 1 1 0.999924
0.999893 1 1 0.999893
0.999891 1 1 0.999891
0.999878 1 1 0.999878
0.999899 1 1 0.999899
0.999882 1 1 0.999882
0.999989 1 1 0.999989
0.99998 1 1 0.99998
0.999915 1 1 0.999915
0.999937 1 1 0.999937
1 1 1 1
1 1 1 1
0.999984 1 1 0.999984
0.999951 1 1 0.999951
0.999889 1 1 0.999889
0.99992 1 1 0.99992
0.999925 1 1 0.999925
0.9999 1 1 0.9999
1 1 1 1
0.999991 1 1 0.999991
0.999921 1 1 0.999921
0.999928 1 1 0.999928
0.999886 1 1 0.999886
0.999885 1 1 0.999885
1 1 1 1
0.999988 1 1 0.999988
0.999936 1 1 0.999936
0.99991 1 1 0.99991
0.999876 1 1 0.999876
0.999902 1 1 0.999902
0.999896 1 1 0.999896
0.999892 1 1 0.999892
0.999991 1 1 0.999991
0.999945 1 1 0.999945
0.999992 1 1 0.999992
0.999892 1 1 0.999892
0.999883 1 1 0.999883
0.999869 1 1 0.999869
0.999865 1 1 0.999865
0.99989 1 1 0.99989
0.999875 1 1 0.999875
0.999991 1 1 0.999991
0.999891 1 1 0.999891
0.999945 1 1 0.999945
0.999906 1 1 0.999906
0.999889 1 1 0.999889
0.999898 1 1 0.999898
0.999993 1 1 0.999993
0.999948 1 1 0.999948
0.999941 1 1 0.999941
0.999921 1 1 0.999921
0.999945 1 1 0.999945
1 1 1 1
1 1 1 1
0.999993 1 1 0.999993
0.999968 1 1 0.999968
0.999908 1 1 0.999908
0.999993 1 1 0.999993
0.999944 1 1 0.999944
0.999933 1 1 0.999933
0.999914 1 1 0.999914
1 1 1 1
0.999993 1 1 0.999993
0.999994 1 1 0.999994
0.999953 1 1 0.999953
0.999901 1 1 0.999901
0.999921 1 1 0.999921
0.999886 1 1 0.999886
0.99995 1 1 0.99995
0.999911 1 1 0.999911
0.999913 1 1 0.999913
0.999905 1 1 0.999905
1 1 1 1
0.999994 1 1 0.999994
0.999952 1 1 0.999952
0.999953 1 1 0.999953
0.999919 1 1 0.999919
0.999885 1 1 0.999885
0.999898 1 1 0.999898
0.99988 1 1 0.99988
0.999916 1 1 0.999916
0.999898 1 1 0.999898
0.999886 1 1 0.999886
0.999995 1 1 0.999995
0.999958 1 1 0.999958
0.999996 1 1 0.999996
0.999996 1 1 0.999996
1 1 1 1
1 1 1 1
1 1 1 1
1 1 1 1
1 1 1 1
1 1 1 1
1 1 1 1
1 1 1 1
1 1 1 1
1 1 1 1
1 1 1 1
0.999939 1 1 0.999939
0.999929 1 1 0.999929
0.999895 1 1 0.999895
0.999891 1 1 0.999891
0.999925 1 1 0.999925
0.999989 1 1 0.999989
0.999925 1 1 0.999925
0.999893 1 1 0.999893
0.999891 1 1 0.999891
0.999879 1 1 0.999879
0.999899 1 1 0.999899
0.999882 1 1 0.999882
0.999893 1 1 0.999893
0.999884 1 1 0.999884
0.999878 1 1 0.999878
0.999873 1 1 0.999873
0.999886 1 1 0.999886
0.999884 1 1 0.999884
0.999918 1 1 0.999918
0.999928 1 1 0.999928
0.999886 1 1 0.999886
0.99989 1 1 0.99989
1 1 1 1
0.999988 1 1 0.999988
0.999939 1 1 0.999939
0.999911 1 1 0.999911
0.999874 1 1 0.999874
0.999896 1 1 0.999896
0.999899 1 1 0.999899
0.999892 1 1 0.999892
0.999991 1 1 0.999991
0.999943 1 1 0.999943
0.999992 1 1 0.999992
0.99989 1 1 0.99989
0.999882 1 1 0.999882
0.999866 1 1 0.999866
0.999866 1 1 0.999866
0.999991 1 1 0.999991
0.999945 1 1 0.999945
0.999909 1 1 0.999909
0.999891 1 1 0.999891
0.999876 1 1 0.999876
0.999887 1 1 0.999887
0.999891 1 1 0.999891
0.9999 1 1 0.9999
0.999949 1 1 0.999949
0.999918 1 1 0.999918
0.999993 1 1 0.999993
0.999941 1 1 0.999941
0.999873 1 1 0.999873
0.999861 1 1 0.999861
0.999856 1 1 0.999856
0.999863 1 1 0.999863
0.999888 1 1 0.999888
0.999881 1 1 0.999881
0.999949 1 1 0.999949
0.999901 1 1 0.999901
0.999915 1 1 0.999915
0.999889 1 1 0.999889
0.999882 1 1 0.999882
0.999903 1 1 0.999903
0.999994 1 1 0.999994
0.999941 1 1 0.999941
0.999921 1 1 0.999921
0.999913 1 1 0.999913
0.999904 1 1 0.999904
1 1 1 1
0.999901 1 1 0.999901
0.999994 1 1 0.999994
0.999993 1 1 0.999993
0.999952 1 1 0.999952
0.999921 1 1 0.999921
0.999886 1 1 0.999886
0.99995 1 1 0.99995
0.999913 1 1 0.999913
0.999913 1 1 0.999913
0.999908 1 1 0.999908
1 1 1 1
0.999994 1 1 0.999994
0.999952 1 1 0.999952
0.999953 1 1 0.999953
0.999918 1 1 0.999918
0.999885 1 1 0.999885
0.999898 1 1 0.999898
0.999879 1 1 0.999879
0.999916 1 1 0.999916
0.999899 1 1 0.999899
0.999888 1 1 0.999888
0.999994 1 1 0.999994
0.999953 1 1 0.999953
0.999917 1 1 0.999917
0.999918 1 1 0.999918
0.999903 1 1 0.999903
0.999884 1 1 0.999884
0.999887 1 1 0.999887
0.999892 1 1 0.999892
0.99989 1 1 0.99989
0.999874 1 1 0.999874
0.999995 1 1 0.999995
0.99995 1 1 0.99995
0.999955 1 1 0.999955
0.999925 1 1 0.999925
0.999959 1 1 0.999959
0.999996 1 1 0.999996
0.999996 1 1 0.999996
1 1 1 1
0.999996 1 1 0.999996
1 1 1 1
1 1 1 1
1 1 1 1
1 1 1 1
1 1 1 1
1 1 1 1
1 1 1 1
1 1 1 1
1 1 1 1
1 1 1 1
1 1 1 1
0.999899 1 1 0.999899
0.999891 1 1 0.999891
0.999882 1 1 0.999882
0.999879 1 1 0.999879
0.999893 1 1 0.999893
0.999925 1 1 0.999925
0.999893 1 1 0.999893
0.999885 1 1 0.999885
0.999878 1 1 0.999878
0.999872 1 1 0.999872
0.999886 1 1 0.999886
0.999884 1 1 0.999884
0.999884 1 1 0.999884
0.999883 1 1 0.999883
0.999872 1 1 0.999872
0.999866 1 1 0.999866
0.999889 1 1 0.999889
0.999888 1 1 0.999888
0.999889 1 1 0.999889
0.999882 1 1 0.999882
0.999864 1 1 0.999864
0.999867 1 1 0.999867
0.99999 1 1 0.99999
0.999945 1 1 0.999945
0.999912 1 1 0.999912
0.999892 1 1 0.999892
0.999877 1 1 0.999877
0.999891 1 1 0.999891
0.999885 1 1 0.999885
0.999901 1 1 0.999901
0.999949 1 1 0.999949
0.999915 1 1 0.999915
0.999993 1 1 0.999993
0.999941 1 1 0.999941
0.999874 1 1 0.999874
0.999862 1 1 0.999862
0.999854 1 1 0.999854
0.999863 1 1 0.999863
0.999949 1 1 0.999949
0.999917 1 1 0.999917
0.999889 1 1 0.999889
0.999888 1 1 0.999888
0.999883 1 1 0.999883
0.999881 1 1 0.999881
0.999901 1 1 0.999901
0.999907 1 1 0.999907
0.999921 1 1 0.999921
0.999903 1 1 0.999903
0.999912 1 1 0.999912
0.99999 1 1 0.99999
0.999942 1 1 0.999942
0.999866 1 1 0.999866
0.999849 1 1 0.999849
0.99987 1 1 0.99987
0.999895 1 1 0.999895
0.999922 1 1 0.999922
0.999916 1 1 0.999916
0.999898 1 1 0.999898
0.99987 1 1 0.99987
0.999878 1 1 0.999878
0.999988 1 1 0.999988
0.999951 1 1 0.999951
0.999909 1 1 0.999909
0.999906 1 1 0.999906
0.99989 1 1 0.99989
0.999892 1 1 0.999892
1 1 1 1
0.999994 1 1 0.999994
0.999884 1 1 0.999884
0.999953 1 1 0.999953
0.999952 1 1 0.999952
0.999917 1 1 0.999917
0.999898 1 1 0.999898
0.999878 1 1 0.999878
0.999916 1 1 0.999916
0.99989 1 1 0.99989
0.9999 1 1 0.9999
0.999994 1 1 0.999994
0.999953 1 1 0.999953
0.999919 1 1 0.999919
0.999917 1 1 0.999917
0.999901 1 1 0.999901
0.999884 1 1 0.999884
0.999886 1 1 0.999886
0.999893 1 1 0.999893
0.999888 1 1 0.999888
0.999871 1 1 0.999871
0.999954 1 1 0.999954
0.999912 1 1 0.999912
0.999896 1 1 0.999896
0.999894 1 1 0.999894
0.999889 1 1 0.999889
0.999911 1 1 0.999911
0.999876 1 1 0.999876
0.999891 1 1 0.999891
0.999872 1 1 0.999872
0.999849 1 1 0.999849
0.999995 1 1 0.999995
0.999953 1 1 0.999953
0.999913 1 1 0.999913
0.999952 1 1 0.999952
0.999959 1 1 0.999959
0.999921 1 1 0.999921
0.999897 1 1 0.999897
0.999917 1 1 0.999917
0.99996 1 1 0.99996
0.999997 1 1 0.999997
0.999996 1 1 0.999996
1 1 1 1
0.999996 1 1 0.999996
1 1 1 1
1 1 1 1
1 1 1 1
1 1 1 1
1 1 1 1
1 1 1 1
1 1 1 1
1 1 1 1
1 1 1 1
1 1 1 1
1 1 1 1
0.999886 1 1 0.999886
0.999878 1 1 0.999878
0.999884 1 1 0.999884
0.99987 1 1 0.99987
0.999886 1 1 0.999886
0.999893 1 1 0.999893
0.999884 1 1 0.999884
0.999883 1 1 0.999883
0.999872 1 1 0.999872
0.999862 1 1 0.999862
0.999889 1 1 0.999889
0.999888 1 1 0.999888
0.999889 1 1 0.999889
0.999878 1 1 0.999878
0.999867 1 1 0.999867
0.999909 1 1 0.999909
0.999874 1 1 0.999874
0.999862 1 1 0.999862
0.999852 1 1 0.999852
0.999864 1 1 0.999864
0.999949 1 1 0.999949
0.999919 1 1 0.999919
0.999888 1 1 0.999888
0.999887 1 1 0.999887
0.999885 1 1 0.999885
0.999901 1 1 0.999901
0.99988 1 1 0.99988
0.999911 1 1 0.999911
0.999921 1 1 0.999921
0.999901 1 1 0.999901
0.999912 1 1 0.999912
0.999987 1 1 0.999987
0.999942 1 1 0.999942
0.999863 1 1 0.999863
0.999851 1 1 0.999851
0.999871 1 1 0.999871
0.999922 1 1 0.999922
0.999901 1 1 0.999901
0.99987 1 1 0.99987
0.999893 1 1 0.999893
0.999882 1 1 0.999882
0.999915 1 1 0.999915
0.999988 1 1 0.999988
0.999906 1 1 0.999906
0.999893 1 1 0.999893
0.999891 1 1 0.999891
0.999911 1 1 0.999911
0.999947 1 1 0.999947
0.99986 1 1 0.99986
0.99985 1 1 0.99985
0.999884 1 1 0.999884
0.999913 1 1 0.999913
0.999906 1 1 0.999906
0.999898 1 1 0.999898
0.999876 1 1 0.999876
0.999857 1 1 0.999857
0.999991 1 1 0.999991
0.999952 1 1 0.999952
0.999915 1 1 0.999915
0.99988 1 1 0.99988
0.999891 1 1 0.999891
0.999878 1 1 0.999878
0.999995 1 1 0.999995
0.999953 1 1 0.999953
0.999883 1 1 0.999883
0.999917 1 1 0.999917
0.999921 1 1 0.999921
0.999899 1 1 0.999899
0.999886 1 1 0.999886
0.999895 1 1 0.999895
0.999887 1 1 0.999887
0.999869 1 1 0.999869
0.999954 1 1 0.999954
0.999914 1 1 0.999914
0.999899 1 1 0.999899
0.999896 1 1 0.999896
0.99989 1 1 0.99989
0.999912 1 1 0.999912
0.999876 1 1 0.999876
0.999898 1 1 0.999898
0.99987 1 1 0.99987
0.999846 1 1 0.999846
0.999911 1 1 0.999911
0.999885 1 1 0.999885
0.999879 1 1 0.999879
0.999878 1 1 0.999878
0.999916 1 1 0.999916
0.999915 1 1 0.999915
0.999852 1 1 0.999852
0.999838 1 1 0.999838
0.999955 1 1 0.999955
0.999916 1 1 0.999916
0.999893 1 1 0.999893
0.999959 1 1 0.999959
0.999916 1 1 0.999916
0.99996 1 1 0.99996
0.999894 1 1 0.999894
0.999919 1 1 0.999919
0.999877 1 1 0.999877
0.999891 1 1 0.999891
0.999918 1 1 0.999918
0.99996 1 1 0.99996
0.999996 1 1 0.999996
0.999997 1 1 0.999997
1 1 1 1
0.999997 1 1 0.999997
1 1 1 1
1 1 1 1
1 1 1 1
1 1 1 1
1 1 1 1
1 1 1 1
1 1 1 1
1 1 1 1
1 1 1 1
1 1 1 1
1 1 1 1
0.999889 1 1 0.999889
0.999872 1 1 0.999872
0.999888 1 1 0.999888
0.999858 1 1 0.999858
0.999883 1 1 0.999883
0.999884 1 1 0.999884
0.999886 1 1 0.999886
0.999877 1 1 0.999877
0.99987 1 1 0.99987
0.999907 1 1 0.999907
0.999884 1 1 0.999884
0.999875 1 1 0.999875
0.999892 1 1 0.999892
0.99986 1 1 0.99986
0.999853 1 1 0.999853
0.999872 1 1 0.999872
0.999922 1 1 0.999922
0.999904 1 1 0.999904
0.999869 1 1 0.999869
0.999892 1 1 0.999892
0.999914 1 1 0.999914
0.999887 1 1 0.999887
0.999906 1 1 0.999906
0.999893 1 1 0.999893
0.999893 1 1 0.999893
0.999988 1 1 0.999988
0.999912 1 1 0.999912
0.999944 1 1 0.999944
0.999864 1 1 0.999864
0.999848 1 1 0.999848
0.999882 1 1 0.999882
0.999906 1 1 0.999906
0.999879 1 1 0.999879
0.99986 1 1 0.99986
0.999916 1 1 0.999916
0.999897 1 1 0.999897
0.999994 1 1 0.999994
0.999952 1 1 0.999952
0.999891 1 1 0.999891
0.999878 1 1 0.999878
0.999882 1 1 0.999882
0.999913 1 1 0.999913
0.999871 1 1 0.999871
0.999852 1 1 0.999852
0.999917 1 1 0.999917
0.999924 1 1 0.999924
0.999887 1 1 0.999887
0.999861 1 1 0.999861
0.999861 1 1 0.999861
0.999999 1 1 0.999999
0.999967 1 1 0.999967
0.999953 1 1 0.999953
0.99991 1 1 0.99991
0.999881 1 1 0.999881
0.999864 1 1 0.999864
0.999881 1 1 0.999881
0.999867 1 1 0.999867
0.999954 1 1 0.999954
0.999915 1 1 0.999915
0.999914 1 1 0.999914
0.999898 1 1 0.999898
0.999901 1 1 0.999901
0.999891 1 1 0.999891
0.999877 1 1 0.999877
0.999905 1 1 0.999905
0.999869 1 1 0.999869
0.999843 1 1 0.999843
0.999911 1 1 0.999911
0.999887 1 1 0.999887
0.999881 1 1 0.999881
0.99988 1 1 0.99988
0.999916 1 1 0.999916
0.999913 1 1 0.999913
0.999855 1 1 0.999855
0.999837 1 1 0.999837
0.999889 1 1 0.999889
0.999903 1 1 0.999903
0.999869 1 1 0.999869
0.999859 1 1 0.999859
0.999935 1 1 0.999935
0.999849 1 1 0.999849
0.999823 1 1 0.999823
0.999918 1 1 0.999918
0.999893 1 1 0.999893
0.999875 1 1 0.999875
0.99996 1 1 0.99996
0.999921 1 1 0.999921
0.999891 1 1 0.999891
0.99996 1 1 0.99996
0.999918 1 1 0.999918
0.999875 1 1 0.999875
0.999895 1 1 0.999895
0.999864 1 1 0.999864
0.999871 1 1 0.999871
0.999895 1 1 0.999895
0.99992 1 1 0.99992
0.999959 1 1 0.999959
0.999996 1 1 0.999996
0.999996 1 1 0.999996
1 1 1 1
0.999997 1 1 0.999997
1 1 1 1
1 1 1 1
1 1 1 1
1 1 1 1
1 1 1 1
0.999999 1 1 0.999999
1 1 1 1
1 1 1 1
1 1 1 1
1 1 1 1
1 1 1 1
1 1 1 1
0.999905 1 1 0.999905
0.999873 1 1 0.999873
0.999877 1 1 0.999877
0.999882 1 1 0.999882
0.999887 1 1 0.999887
0.999874 1 1 0.999874
0.999897 1 1 0.999897
0.999885 1 1 0.999885
0.999882 1 1 0.999882
0.999929 1 1 0.999929
0.999868 1 1 0.999868
0.999847 1 1 0.999847
0.999879 1 1 0.999879
0.999905 1 1 0.999905
0.999881 1 1 0.999881
0.999862 1 1 0.999862
0.999918 1 1 0.999918
0.999897 1 1 0.999897
0.999891 1 1 0.999891
0.999879 1 1 0.999879
0.999883 1 1 0.999883
0.999997 1 1 0.999997
0.999952 1 1 0.999952
0.999911 1 1 0.999911
0.999868 1 1 0.999868
0.999998 1 1 0.999998
0.999964 1 1 0.999964
0.999854 1 1 0.999854
0.999911 1 1 0.999911
0.999888 1 1 0.999888
0.999859 1 1 0.999859
0.999862 1 1 0.999862
0.999923 1 1 0.999923
0.999959 1 1 0.999959
0.999909 1 1 0.999909
0.999882 1 1 0.999882
0.999868 1 1 0.999868
0.999861 1 1 0.999861
0.999882 1 1 0.999882
0.999848 1 1 0.999848
0.999885 1 1 0.999885
0.999954 1 1 0.999954
0.999886 1 1 0.999886
0.999875 1 1 0.999875
0.999844 1 1 0.999844
0.999966 1 1 0.999966
0.999963 1 1 0.999963
0.999931 1 1 0.999931
0.999907 1 1 0.999907
0.999883 1 1 0.999883
0.99985 1 1 0.99985
0.999844 1 1 0.999844
0.999868 1 1 0.999868
0.999911 1 1 0.999911
0.99989 1 1 0.99989
0.999915 1 1 0.999915
0.999911 1 1 0.999911
0.999882 1 1 0.999882
0.999883 1 1 0.999883
0.999858 1 1 0.999858
0.999836 1 1 0.999836
0.999889 1 1 0.999889
0.999915 1 1 0.999915
0.999869 1 1 0.999869
0.999856 1 1 0.999856
0.999932 1 1 0.999932
0.99985 1 1 0.99985
0.999837 1 1.00002 0.999822
0.999869 1 1 0.999869
0.999937 1 1 0.999937
0.999856 1 1 0.999856
0.999859 1 1.00003 0.999828
0.999854 1 1 0.999854
1.00045 1 1.00065 0.999804
0.984346 1.00269 0.981895 0.99981
0.999893 1 1 0.999893
0.999875 1 1 0.999875
0.999863 1 1 0.999863
0.99996 1 1 0.99996
0.999918 1 1 0.999918
0.999898 1 1 0.999898
0.999873 1 1 0.999873
0.999958 1 1 0.999958
0.999918 1 1 0.999918
0.999863 1 1 0.999863
0.999895 1 1 0.999895
0.999874 1 1 0.999874
0.999855 1 1 0.999855
0.999875 1 1 0.999875
0.999895 1 1 0.999895
0.999913 1 1 0.999913
0.999952 1 1 0.999952
0.999923 1 1 0.999923
0.999952 1 1 0.999952
0.999996 1 1 0.999996
0.999996 1 1 0.999996
1 1 1 1
0.999996 1 1 0.999996
1 1 1 1
1 1 1 1
1 1 1 1
1 1 1 1
1 1 1 1
1 1 1 1
0.999999 1 1 0.999999
1 1 1 1
1 1 1 1
1 1 1 1
1 1 1 1
1 1 1 1
1 1 1 1
0.999902 1 1 0.999902
0.999872 1 1 0.999872
0.99989 1 1 0.99989
0.999885 1 1 0.999885
0.999883 1 1 0.999883
0.999942 1 1 0.999942
0.999887 1 1 0.999887
0.996078 1.00021 0.995896 0.999971
0.999722 1 0.99973 0.999992
0.999975 1 1 0.999975
0.999864 1 1 0.999864
0.999855 1 1 0.999855
0.999905 1 1 0.999905
0.999889 1 1 0.999889
0.999857 1 1 0.999857
0.999863 1 1 0.999863
0.999923 1 1 0.999923
0.999883 1 1 0.999883
0.99987 1 1 0.99987
0.999858 1 1 0.999858
0.999998 1 1 0.999998
0.999882 1 1 0.999882
0.999965 1 1 0.999965
0.999909 1 1 0.999909
0.999961 1 1 0.999961
0.999842 1 1 0.999842
0.999969 1 1 0.999969
0.999963 1 1 0.999963
0.999926 1 1 0.999926
0.999886 1 1 0.999886
0.99991 1 0.999964 0.999946
0.999876 1 1 0.999876
0.999844 1 1 0.999844
0.999888 1 1 0.999888
0.99991 1 1 0.99991
0.999882 1 1 0.999882
0.999868 1 1 0.999868
0.999848 1 1 0.999848
0.999853 1 1 0.999853
0.999874 1 1.00004 0.999829
0.99804 1 0.998093 0.999947
0.999916 1 1 0.999916
0.99985 1 1 0.99985
0.999862 1 1 0.999862
0.999927 1 1 0.999927
0.999914 1 1 0.999914
0.999898 1 1 0.999898
0.999876 1 1 0.999876
0.999858 1 1 0.999858
0.999831 1 1 0.999831
1.00067 1 1.00083 0.99984
0.999889 1 1 0.999889
0.999868 1 1 0.999868
0.999927 1 1 0.999927
0.99993 1 1 0.99993
0.999851 1 1 0.999851
0.999853 1 1 0.999853
0.99982 1 1 0.99982
0.999871 1 1 0.999871
0.999927 1 0.999984 0.999943
0.999855 1 1 0.999855
0.999828 1 1 0.999828
0.999863 1 1 0.999863
1.00086 1 1.00106 0.999802
0.988408 1.00497 0.983696 0.999825
0.999857 1 1 0.999857
0.999832 1 1 0.999832
0.999842 1 1 0.999842
1.0019 1 1.0021 0.999799
1.00059 1 1.00081 0.999784
0.967211 0.967768 1.00004 0.999384
0.98856 1.00214 0.986562 0.999891
0.984056 1.0072 0.977252 0.99976
0.974392 0.980607 0.993703 0.999958
0.980306 1.00262 0.977742 0.999999
0.999875 1 1 0.999875
0.999863 1 1 0.999863
0.999853 1 1 0.999853
0.999958 1 1 0.999958
0.999916 1 1 0.999916
0.999895 1 1 0.999895
0.999876 1 1 0.999876